Created on Fri Jul 19 13:03:05 2024 

          34 atoms
          35 bonds
          52 angles
          76 dihedrals
          48 impropers

           5 atom types
           8 bond types
           9 angle types
           3 dihedral types
           2 improper types
           0.000000  15.000000 xlo xhi
           0.000000  15.000000 ylo yhi
           0.000000  15.000000 zlo zhi
           0.000000   0.000000   0.000000 xy xz yz

Masses

    1     1.007940000 # H_
    2    12.010700000 # C_R
    3    12.010700000 # C_2
    4    15.999400000 # O_2
    5    18.998403200 # F_

Bond Coeffs

    1      357.440381        1.081418  # H_ C_R
    2      462.655054        1.379256  # C_R C_R
    3      391.669513        1.458000  # C_R C_R
    4      389.261715        1.461000  # C_R C_2
    5      443.203299        1.354566  # C_R F_
    6      599.390467        1.345574  # C_2 O_2
    7      805.258367        1.219455  # C_2 O_2
    8      602.435128        0.966432  # O_2 H_

Angle Coeffs

    1       cosine/periodic	57.289016              -1               3 # H_ C_R C_R
    2      cosine/periodic	111.297508              -1               3 # C_R C_R C_R
    3      cosine/periodic	102.183280              -1               3 # C_R C_R C_R
    4      cosine/periodic	101.852144              -1               3 # C_R C_R C_2
    5      cosine/periodic	103.744454              -1               3 # C_R C_R F_
    6      cosine/periodic	126.842893              -1               3 # C_R C_2 O_2
    7      cosine/periodic	144.391343              -1               3 # C_R C_2 O_2
    8      cosine/periodic	199.686627              -1               3 # O_2 C_2 O_2
    9       cosine/periodic	67.976975              -1               3 # C_2 O_2 H_

Dihedral Coeffs

    1        3.368555              -1               2 # H_ C_R C_R C_R
    2        1.250000              -1               2 # C_R C_R C_R C_R
    3        2.500000              -1               2 # C_R C_2 O_2 H_

Improper Coeffs

    1        2.000000        1.000000       -1.000000        0.000000               0 # H_ C_R C_R C_R
    2       16.666667        1.000000       -1.000000        0.000000               0 # C_R C_2 O_2 O_2

Pair Coeffs

    1        0.044000        2.571134 # H_ H_
    2        0.105000        3.430851 # C_R C_R
    3        0.105000        3.430851 # C_2 C_2
    4        0.060000        3.118146 # O_2 O_2
    5        0.050000        2.996983 # F_ F_

Atoms

       1      444        1     0.06346    7.50520    7.49983    2.72909
       2      444        2    -0.03096    7.50672    7.50110    3.81812
       3      444        2     0.01895    7.49558    7.49644    6.65592
       4      444        2     0.09527    6.87789    8.53396    4.52260
       5      444        2    -0.01355    7.49355    7.48652    8.13860
       6      444        2     0.14504    6.90323    8.53915    5.92042
       7      444        2     0.06018    6.46951    8.11056   10.27814
       8      444        2    -0.03376    7.50462    7.49287   10.97742
       9      444        1     0.06337    7.51362    7.50056   12.06549
      10      444        2    -0.03726    8.10045    6.45857    5.92496
      11      444        2     0.06036    8.13593    6.47220    4.52323
      12      444        2     0.06018    8.53184    6.86632   10.26844
      13      444        1     0.06326    8.56135    5.62103    6.44715
      14      444        2    -0.03992    8.54353    6.89884    8.86579
      15      444        3     0.33684    8.87477    5.42566    3.78188
      16      444        4    -0.47712    9.02798    4.30343    4.50662
      17      444        4    -0.47712    9.25444    5.69461   12.15649
      18      444        4    -0.24513    9.31442    5.53007    2.65297
      19      444        1     0.06317    9.39072    6.44797    8.35104
      20      444        3     0.33684    9.62671    6.13625   10.94310
      21      444        4    -0.24513   10.70633    5.85887   10.46096
      22      444        4    -0.24513    4.28831    9.10644   10.48920
      23      444        3     0.33684    5.38027    8.84470   10.95626
      24      444        1     0.06317    5.59367    8.51487    8.36968
      25      444        4    -0.24503    5.65635    9.41374    2.66706
      26      444        4    -0.47712    5.76130    9.30026   12.16374
      27      444        4    -0.47706    6.04298   10.73456    4.42955
      28      444        3     0.33964    6.13941    9.56791    3.77330
      29      444        2    -0.03992    6.44816    8.06420    8.87804
      30      444        1     0.29541    5.00182    9.84693   12.45588
      31      444        1     0.29541   10.01357    5.14976   12.45391
      32      444        1     0.29541    5.47564   11.30665    3.87430
      33      444        1     0.29541    9.53638    3.69813    3.92648
      34      444        5    -0.20400    6.32376    9.57704    6.57419

Bonds

       1        1        1        2
       2        2        2        4
       3        2        2       11
       4        3        3        5
       5        2        3        6
       6        2        3       10
       7        2        4        6
       8        4        4       28
       9        2        5       14
      10        2        5       29
      11        5        6       34
      12        2        7        8
      13        4        7       23
      14        2        7       29
      15        1        8        9
      16        2        8       12
      17        2       10       11
      18        1       10       13
      19        4       11       15
      20        2       12       14
      21        4       12       20
      22        1       14       19
      23        6       15       16
      24        7       15       18
      25        8       16       33
      26        6       17       20
      27        8       17       31
      28        7       20       21
      29        7       22       23
      30        6       23       26
      31        1       24       29
      32        7       25       28
      33        8       26       30
      34        6       27       28
      35        8       27       32

Angles

       1        1        1        2        4
       2        1        1        2       11
       3        2        4        2       11
       4        3        5        3        6
       5        3        5        3       10
       6        2        6        3       10
       7        2        2        4        6
       8        4        2        4       28
       9        4        6        4       28
      10        3        3        5       14
      11        3        3        5       29
      12        2       14        5       29
      13        2        3        6        4
      14        5        3        6       34
      15        5        4        6       34
      16        4        8        7       23
      17        2        8        7       29
      18        4       23        7       29
      19        1        7        8        9
      20        2        7        8       12
      21        1        9        8       12
      22        2        3       10       11
      23        1        3       10       13
      24        1       11       10       13
      25        2        2       11       10
      26        4        2       11       15
      27        4       10       11       15
      28        2        8       12       14
      29        4        8       12       20
      30        4       14       12       20
      31        2        5       14       12
      32        1        5       14       19
      33        1       12       14       19
      34        6       11       15       16
      35        7       11       15       18
      36        8       16       15       18
      37        9       15       16       33
      38        9       20       17       31
      39        6       12       20       17
      40        7       12       20       21
      41        8       17       20       21
      42        7        7       23       22
      43        6        7       23       26
      44        8       22       23       26
      45        9       23       26       30
      46        9       28       27       32
      47        7        4       28       25
      48        6        4       28       27
      49        8       25       28       27
      50        2        5       29        7
      51        1        5       29       24
      52        1        7       29       24

Dihedrals

       1        1        1        2        4        6
       2        1        1        2        4       28
       3        1       11        2        4        6
       4        1       11        2        4       28
       5        1        1        2       11       10
       6        1        1        2       11       15
       7        1        4        2       11       10
       8        1        4        2       11       15
       9        2        6        3        5       14
      10        2        6        3        5       29
      11        2       10        3        5       14
      12        2       10        3        5       29
      13        1        5        3        6        4
      14        1        5        3        6       34
      15        1       10        3        6        4
      16        1       10        3        6       34
      17        1        5        3       10       11
      18        1        5        3       10       13
      19        1        6        3       10       11
      20        1        6        3       10       13
      21        1        2        4        6        3
      22        1        2        4        6       34
      23        1       28        4        6        3
      24        1       28        4        6       34
      25        2        2        4       28       25
      26        2        2        4       28       27
      27        2        6        4       28       25
      28        2        6        4       28       27
      29        1        3        5       14       12
      30        1        3        5       14       19
      31        1       29        5       14       12
      32        1       29        5       14       19
      33        1        3        5       29        7
      34        1        3        5       29       24
      35        1       14        5       29        7
      36        1       14        5       29       24
      37        1       23        7        8        9
      38        1       23        7        8       12
      39        1       29        7        8        9
      40        1       29        7        8       12
      41        2        8        7       23       22
      42        2        8        7       23       26
      43        2       29        7       23       22
      44        2       29        7       23       26
      45        1        8        7       29        5
      46        1        8        7       29       24
      47        1       23        7       29        5
      48        1       23        7       29       24
      49        1        7        8       12       14
      50        1        7        8       12       20
      51        1        9        8       12       14
      52        1        9        8       12       20
      53        1        3       10       11        2
      54        1        3       10       11       15
      55        1       13       10       11        2
      56        1       13       10       11       15
      57        2        2       11       15       16
      58        2        2       11       15       18
      59        2       10       11       15       16
      60        2       10       11       15       18
      61        1        8       12       14        5
      62        1        8       12       14       19
      63        1       20       12       14        5
      64        1       20       12       14       19
      65        2        8       12       20       17
      66        2        8       12       20       21
      67        2       14       12       20       17
      68        2       14       12       20       21
      69        3       11       15       16       33
      70        3       18       15       16       33
      71        3       31       17       20       12
      72        3       31       17       20       21
      73        3        7       23       26       30
      74        3       22       23       26       30
      75        3       32       27       28        4
      76        3       32       27       28       25

Impropers

       1        1        2        1        4       11
       2        1        2        4        1       11
       3        1        2       11        1        4
       4        1        3        5        6       10
       5        1        3        6        5       10
       6        1        3       10        5        6
       7        1        4        2        6       28
       8        1        4        6        2       28
       9        1        4       28        2        6
      10        1        5        3       14       29
      11        1        5       14        3       29
      12        1        5       29        3       14
      13        1        6        3        4       34
      14        1        6        4        3       34
      15        1        6       34        3        4
      16        1        7        8       23       29
      17        1        7       23        8       29
      18        1        7       29        8       23
      19        1        8        7        9       12
      20        1        8        9        7       12
      21        1        8       12        7        9
      22        1       10        3       11       13
      23        1       10       11        3       13
      24        1       10       13        3       11
      25        1       11        2       10       15
      26        1       11       10        2       15
      27        1       11       15        2       10
      28        1       12        8       14       20
      29        1       12       14        8       20
      30        1       12       20        8       14
      31        1       14        5       12       19
      32        1       14       12        5       19
      33        1       14       19        5       12
      34        2       15       11       16       18
      35        2       15       16       11       18
      36        2       15       18       11       16
      37        2       20       12       17       21
      38        2       20       17       12       21
      39        2       20       21       12       17
      40        2       23        7       22       26
      41        2       23       22        7       26
      42        2       23       26        7       22
      43        2       28        4       25       27
      44        2       28       25        4       27
      45        2       28       27        4       25
      46        1       29        5        7       24
      47        1       29        7        5       24
      48        1       29       24        5        7
