Created on Fri Jul 19 13:02:32 2024 

          36 atoms
          37 bonds
          55 angles
          80 dihedrals
          51 impropers

           6 atom types
           9 bond types
          11 angle types
           3 dihedral types
           2 improper types
           0.000000  15.000000 xlo xhi
           0.000000  15.000000 ylo yhi
           0.000000  15.000000 zlo zhi
           0.000000   0.000000   0.000000 xy xz yz

Masses

    1    12.010700000 # C_2
    2    12.010700000 # C_R
    3    15.999400000 # O_2
    4     1.007940000 # H_
    5    14.006700000 # N_R
    6    15.999400000 # O_R

Bond Coeffs

    1      599.390467        1.345574  # C_2 O_2
    2      389.261715        1.461000  # C_2 C_R
    3      805.258367        1.219455  # C_2 O_2
    4      462.655054        1.379256  # C_R C_R
    5      561.491352        1.422196  # C_R N_R
    6      602.435128        0.966432  # O_2 H_
    7      357.440381        1.081418  # H_ C_R
    8      391.669513        1.458000  # C_R C_R
    9      884.941708        1.299717  # N_R O_R

Angle Coeffs

    1      cosine/periodic	126.842893              -1               3 # O_2 C_2 C_R
    2      cosine/periodic	199.686627              -1               3 # O_2 C_2 O_2
    3      cosine/periodic	144.391343              -1               3 # C_R C_2 O_2
    4      cosine/periodic	111.297508              -1               3 # C_R C_R C_R
    5      cosine/periodic	141.337441              -1               3 # C_R C_R N_R
    6       cosine/periodic	67.976975              -1               3 # C_2 O_2 H_
    7       cosine/periodic	57.289016              -1               3 # C_R C_R H_
    8      cosine/periodic	101.852144              -1               3 # C_2 C_R C_R
    9      cosine/periodic	102.183280              -1               3 # C_R C_R C_R
   10      cosine/periodic	138.990244              -1               3 # C_R N_R O_R
   11      cosine/periodic	192.465780              -1               3 # O_R N_R O_R

Dihedral Coeffs

    1        2.500000              -1               2 # C_R C_2 O_2 H_
    2        1.250000              -1               2 # O_2 C_2 C_R C_R
    3        3.368555              -1               2 # C_R C_R C_R H_

Improper Coeffs

    1       16.666667        1.000000       -1.000000        0.000000               0 # O_2 C_2 C_R O_2
    2        2.000000        1.000000       -1.000000        0.000000               0 # C_R C_R C_R N_R

Pair Coeffs

    1        0.105000        3.430851 # C_2 C_2
    2        0.105000        3.430851 # C_R C_R
    3        0.060000        3.118146 # O_2 O_2
    4        0.044000        2.571134 # H_ H_
    5        0.069000        3.260689 # N_R N_R
    6        0.060000        3.118146 # O_R O_R

Atoms

       1      444        1     0.33965    5.92774    6.92802    9.08536
       2      444        2     0.14075    6.90145    4.86200    8.08343
       3      444        3    -0.47706    6.17766    6.70060   10.38608
       4      444        4     0.06406    7.65947    3.10857    7.06103
       5      444        2    -0.02985    7.63038    4.19624    7.10039
       6      444        1     0.33742    5.96184    8.62923    5.25798
       7      444        2     0.09741    6.84911    6.25555    8.15087
       8      444        3    -0.24511    6.07429    8.88956    4.07678
       9      444        2    -0.04498    8.34080    4.93977    6.16716
      10      444        2     0.01383    7.56866    7.02732    7.20225
      11      444        4     0.06265    8.90169    4.43934    5.37936
      12      444        2     0.06734    6.78934    9.26628    6.30819
      13      444        2     0.06747    8.32782    6.34090    6.22950
      14      444        4     0.06258    6.30585   11.22943    5.54632
      15      444        2     0.01167    7.53297    8.51220    7.24006
      16      444        2    -0.04714    6.83381   10.66567    6.31521
      17      444        3    -0.24511    8.98656    6.86546    4.01647
      18      444        1     0.33742    9.13749    7.03828    5.21116
      19      444        2     0.06734    8.26726    9.22551    8.21649
      20      444        2    -0.06017    7.55444   11.34065    7.30044
      21      444        3    -0.47711    8.90779    8.74392   10.40843
      22      444        4     0.06180    7.57668   12.42802    7.30304
      23      444        1     0.33742    9.17062    8.49199    9.12067
      24      444        2    -0.04714    8.26223   10.62391    8.26298
      25      444        3    -0.47711   10.10691    7.80909    5.75142
      26      444        3    -0.24511    9.98779    7.67331    8.73653
      27      444        4     0.06258    8.83894   11.15682    9.01710
      28      444        3    -0.47711    5.06212    7.75912    5.76363
      29      444        3    -0.24503    5.08493    7.70068    8.65362
      30      444        4     0.29541    4.89038    7.85383    6.72929
      31      444        4     0.29541    6.90260    6.09325   10.64908
      32      444        4     0.29541   10.23514    7.71725    6.72038
      33      444        4     0.29541    9.53226    8.21206   10.94637
      34      444        5     0.05726    6.13765    4.00969    8.97392
      35      444        6    -0.12612    5.24908    4.43728    9.64596
      36      444        6    -0.12612    6.32622    2.82918    8.98303

Bonds

       1        1        1        3
       2        2        1        7
       3        3        1       29
       4        4        2        5
       5        4        2        7
       6        5        2       34
       7        6        3       31
       8        7        4        5
       9        4        5        9
      10        3        6        8
      11        2        6       12
      12        1        6       28
      13        4        7       10
      14        7        9       11
      15        4        9       13
      16        4       10       13
      17        8       10       15
      18        4       12       15
      19        4       12       16
      20        2       13       18
      21        7       14       16
      22        4       15       19
      23        4       16       20
      24        3       17       18
      25        1       18       25
      26        2       19       23
      27        4       19       24
      28        7       20       22
      29        4       20       24
      30        1       21       23
      31        6       21       33
      32        3       23       26
      33        7       24       27
      34        6       25       32
      35        6       28       30
      36        9       34       35
      37        9       34       36

Angles

       1        1        3        1        7
       2        2        3        1       29
       3        3        7        1       29
       4        4        5        2        7
       5        5        5        2       34
       6        5        7        2       34
       7        6        1        3       31
       8        7        2        5        4
       9        4        2        5        9
      10        7        4        5        9
      11        3        8        6       12
      12        2        8        6       28
      13        1       12        6       28
      14        8        1        7        2
      15        8        1        7       10
      16        4        2        7       10
      17        7        5        9       11
      18        4        5        9       13
      19        7       11        9       13
      20        4        7       10       13
      21        9        7       10       15
      22        9       13       10       15
      23        8        6       12       15
      24        8        6       12       16
      25        4       15       12       16
      26        4        9       13       10
      27        8        9       13       18
      28        8       10       13       18
      29        9       10       15       12
      30        9       10       15       19
      31        4       12       15       19
      32        7       12       16       14
      33        4       12       16       20
      34        7       14       16       20
      35        3       13       18       17
      36        1       13       18       25
      37        2       17       18       25
      38        8       15       19       23
      39        4       15       19       24
      40        8       23       19       24
      41        7       16       20       22
      42        4       16       20       24
      43        7       22       20       24
      44        6       23       21       33
      45        1       19       23       21
      46        3       19       23       26
      47        2       21       23       26
      48        4       19       24       20
      49        7       19       24       27
      50        7       20       24       27
      51        6       18       25       32
      52        6        6       28       30
      53       10        2       34       35
      54       10        2       34       36
      55       11       35       34       36

Dihedrals

       1        1        7        1        3       31
       2        1       29        1        3       31
       3        2        3        1        7        2
       4        2        3        1        7       10
       5        2       29        1        7        2
       6        2       29        1        7       10
       7        3        7        2        5        4
       8        3        7        2        5        9
       9        3       34        2        5        4
      10        3       34        2        5        9
      11        3        5        2        7        1
      12        3        5        2        7       10
      13        3       34        2        7        1
      14        3       34        2        7       10
      15        2        5        2       34       35
      16        2        5        2       34       36
      17        2        7        2       34       35
      18        2        7        2       34       36
      19        3        2        5        9       11
      20        3        2        5        9       13
      21        3        4        5        9       11
      22        3        4        5        9       13
      23        2        8        6       12       15
      24        2        8        6       12       16
      25        2       28        6       12       15
      26        2       28        6       12       16
      27        1        8        6       28       30
      28        1       12        6       28       30
      29        3        1        7       10       13
      30        3        1        7       10       15
      31        3        2        7       10       13
      32        3        2        7       10       15
      33        3        5        9       13       10
      34        3        5        9       13       18
      35        3       11        9       13       10
      36        3       11        9       13       18
      37        3        7       10       13        9
      38        3        7       10       13       18
      39        3       15       10       13        9
      40        3       15       10       13       18
      41        2        7       10       15       12
      42        2        7       10       15       19
      43        2       13       10       15       12
      44        2       13       10       15       19
      45        3        6       12       15       10
      46        3        6       12       15       19
      47        3       16       12       15       10
      48        3       16       12       15       19
      49        3        6       12       16       14
      50        3        6       12       16       20
      51        3       15       12       16       14
      52        3       15       12       16       20
      53        2        9       13       18       17
      54        2        9       13       18       25
      55        2       10       13       18       17
      56        2       10       13       18       25
      57        3       10       15       19       23
      58        3       10       15       19       24
      59        3       12       15       19       23
      60        3       12       15       19       24
      61        3       12       16       20       22
      62        3       12       16       20       24
      63        3       14       16       20       22
      64        3       14       16       20       24
      65        1       13       18       25       32
      66        1       17       18       25       32
      67        2       15       19       23       21
      68        2       15       19       23       26
      69        2       24       19       23       21
      70        2       24       19       23       26
      71        3       15       19       24       20
      72        3       15       19       24       27
      73        3       23       19       24       20
      74        3       23       19       24       27
      75        3       16       20       24       19
      76        3       16       20       24       27
      77        3       22       20       24       19
      78        3       22       20       24       27
      79        1       33       21       23       19
      80        1       33       21       23       26

Impropers

       1        1        1        3        7       29
       2        1        1        7        3       29
       3        1        1       29        3        7
       4        2        2        5        7       34
       5        2        2        7        5       34
       6        2        2       34        5        7
       7        2        5        2        4        9
       8        2        5        4        2        9
       9        2        5        9        2        4
      10        1        6        8       12       28
      11        1        6       12        8       28
      12        1        6       28        8       12
      13        2        7        1        2       10
      14        2        7        2        1       10
      15        2        7       10        1        2
      16        2        9        5       11       13
      17        2        9       11        5       13
      18        2        9       13        5       11
      19        2       10        7       13       15
      20        2       10       13        7       15
      21        2       10       15        7       13
      22        2       12        6       15       16
      23        2       12       15        6       16
      24        2       12       16        6       15
      25        2       13        9       10       18
      26        2       13       10        9       18
      27        2       13       18        9       10
      28        2       15       10       12       19
      29        2       15       12       10       19
      30        2       15       19       10       12
      31        2       16       12       14       20
      32        2       16       14       12       20
      33        2       16       20       12       14
      34        1       18       13       17       25
      35        1       18       17       13       25
      36        1       18       25       13       17
      37        2       19       15       23       24
      38        2       19       23       15       24
      39        2       19       24       15       23
      40        2       20       16       22       24
      41        2       20       22       16       24
      42        2       20       24       16       22
      43        1       23       19       21       26
      44        1       23       21       19       26
      45        1       23       26       19       21
      46        2       24       19       20       27
      47        2       24       20       19       27
      48        2       24       27       19       20
      49        2       34        2       35       36
      50        2       34       35        2       36
      51        2       34       36        2       35
