Created on Fri Jul 19 13:01:56 2024 

          21 atoms
          21 bonds
          30 angles
          42 dihedrals
          27 impropers

           5 atom types
           7 bond types
           8 angle types
           3 dihedral types
           2 improper types
           0.000000  15.000000 xlo xhi
           0.000000  15.000000 ylo yhi
           0.000000  15.000000 zlo zhi
           0.000000   0.000000   0.000000 xy xz yz

Masses

    1    15.999400000 # O_2
    2    12.010700000 # C_2
    3     1.007940000 # H_
    4    12.010700000 # C_R
    5    35.453000000 # Cl

Bond Coeffs

    1      599.390467        1.345574  # O_2 C_2
    2      602.435128        0.966432  # O_2 H_
    3      805.258367        1.219455  # O_2 C_2
    4      389.261715        1.461000  # C_2 C_R
    5      357.440381        1.081418  # H_ C_R
    6      462.655054        1.379256  # C_R C_R
    7      277.880341        1.750578  # C_R Cl

Angle Coeffs

    1       cosine/periodic	67.976975              -1               3 # C_2 O_2 H_
    2      cosine/periodic	199.686627              -1               3 # O_2 C_2 O_2
    3      cosine/periodic	126.842893              -1               3 # O_2 C_2 C_R
    4      cosine/periodic	144.391343              -1               3 # O_2 C_2 C_R
    5      cosine/periodic	101.852144              -1               3 # C_2 C_R C_R
    6      cosine/periodic	111.297508              -1               3 # C_R C_R C_R
    7       cosine/periodic	91.878144              -1               3 # C_R C_R Cl
    8       cosine/periodic	57.289016              -1               3 # H_ C_R C_R

Dihedral Coeffs

    1        2.500000              -1               2 # H_ O_2 C_2 O_2
    2        1.250000              -1               2 # O_2 C_2 C_R C_R
    3        3.368555              -1               2 # C_2 C_R C_R C_R

Improper Coeffs

    1       16.666667        1.000000       -1.000000        0.000000               0 # O_2 C_2 O_2 C_R
    2        2.000000        1.000000       -1.000000        0.000000               0 # C_2 C_R C_R C_R

Pair Coeffs

    1        0.060000        3.118146 # O_2 O_2
    2        0.105000        3.430851 # C_2 C_2
    3        0.044000        2.571134 # H_ H_
    4        0.105000        3.430851 # C_R C_R
    5        0.227000        3.516377 # Cl Cl

Atoms

       1        1        1    -0.47709    8.93860    7.77947   10.83155
       2        1        1    -0.24513    5.38915    5.69969    4.87731
       3        1        1    -0.47709    8.92652   10.79646    6.56382
       4        1        1    -0.24508    7.85782    5.84949   10.71009
       5        1        1    -0.47712    5.42219    4.51216    6.77144
       6        1        1    -0.24508    7.85678   10.02828    4.78288
       7        1        2     0.33827    8.21524    9.85435    5.93479
       8        1        2     0.33827    8.22688    6.86652   10.15658
       9        1        2     0.33685    5.78333    5.56707    6.01849
      10        1        3     0.06342    6.76268    7.85520    5.06316
      11        1        3     0.06342    6.77025    5.38863    8.57584
      12        1        4     0.07865    7.90986    8.63158    6.74173
      13        1        4     0.06047    6.67987    6.51375    6.74332
      14        1        4     0.07865    7.91198    7.22662    8.73522
      15        1        4     0.06890    8.34147    8.39910    8.06860
      16        1        4    -0.03233    7.08718    7.68235    6.09010
      17        1        4    -0.03233    7.09534    6.29241    8.05754
      18        1        3     0.29541    4.82374    3.99210    6.19451
      19        1        3     0.29541    9.06603    7.45158   11.74333
      20        1        3     0.29541    9.05515   11.53675    5.94029
      21        1        5    -0.08186    9.37995    9.57643    8.89940

Bonds

       1        1        1        8
       2        2        1       19
       3        3        2        9
       4        1        3        7
       5        2        3       20
       6        3        4        8
       7        1        5        9
       8        2        5       18
       9        3        6        7
      10        4        7       12
      11        4        8       14
      12        4        9       13
      13        5       10       16
      14        5       11       17
      15        6       12       15
      16        6       12       16
      17        6       13       16
      18        6       13       17
      19        6       14       15
      20        6       14       17
      21        7       15       21

Angles

       1        1        8        1       19
       2        1        7        3       20
       3        1        9        5       18
       4        2        3        7        6
       5        3        3        7       12
       6        4        6        7       12
       7        2        1        8        4
       8        3        1        8       14
       9        4        4        8       14
      10        2        2        9        5
      11        4        2        9       13
      12        3        5        9       13
      13        5        7       12       15
      14        5        7       12       16
      15        6       15       12       16
      16        5        9       13       16
      17        5        9       13       17
      18        6       16       13       17
      19        5        8       14       15
      20        5        8       14       17
      21        6       15       14       17
      22        6       12       15       14
      23        7       12       15       21
      24        7       14       15       21
      25        8       10       16       12
      26        8       10       16       13
      27        6       12       16       13
      28        8       11       17       13
      29        8       11       17       14
      30        6       13       17       14

Dihedrals

       1        1       19        1        8        4
       2        1       19        1        8       14
       3        1       20        3        7        6
       4        1       20        3        7       12
       5        1       18        5        9        2
       6        1       18        5        9       13
       7        2        3        7       12       15
       8        2        3        7       12       16
       9        2        6        7       12       15
      10        2        6        7       12       16
      11        2        1        8       14       15
      12        2        1        8       14       17
      13        2        4        8       14       15
      14        2        4        8       14       17
      15        2        2        9       13       16
      16        2        2        9       13       17
      17        2        5        9       13       16
      18        2        5        9       13       17
      19        3        7       12       15       14
      20        3        7       12       15       21
      21        3       16       12       15       14
      22        3       16       12       15       21
      23        3        7       12       16       10
      24        3        7       12       16       13
      25        3       15       12       16       10
      26        3       15       12       16       13
      27        3        9       13       16       10
      28        3        9       13       16       12
      29        3       17       13       16       10
      30        3       17       13       16       12
      31        3        9       13       17       11
      32        3        9       13       17       14
      33        3       16       13       17       11
      34        3       16       13       17       14
      35        3        8       14       15       12
      36        3        8       14       15       21
      37        3       17       14       15       12
      38        3       17       14       15       21
      39        3        8       14       17       11
      40        3        8       14       17       13
      41        3       15       14       17       11
      42        3       15       14       17       13

Impropers

       1        1        7        3        6       12
       2        1        7        6        3       12
       3        1        7       12        3        6
       4        1        8        1        4       14
       5        1        8        4        1       14
       6        1        8       14        1        4
       7        1        9        2        5       13
       8        1        9        5        2       13
       9        1        9       13        2        5
      10        2       12        7       15       16
      11        2       12       15        7       16
      12        2       12       16        7       15
      13        2       13        9       16       17
      14        2       13       16        9       17
      15        2       13       17        9       16
      16        2       14        8       15       17
      17        2       14       15        8       17
      18        2       14       17        8       15
      19        2       15       12       14       21
      20        2       15       14       12       21
      21        2       15       21       12       14
      22        2       16       10       12       13
      23        2       16       12       10       13
      24        2       16       13       10       12
      25        2       17       11       13       14
      26        2       17       13       11       14
      27        2       17       14       11       13
