Created on Fri Jul 19 13:02:59 2024 

          36 atoms
          37 bonds
          55 angles
          80 dihedrals
          51 impropers

           5 atom types
           9 bond types
          11 angle types
           3 dihedral types
           2 improper types
           0.000000  15.000000 xlo xhi
           0.000000  15.000000 ylo yhi
           0.000000  15.000000 zlo zhi
           0.000000   0.000000   0.000000 xy xz yz

Masses

    1     1.007940000 # H_
    2    12.010700000 # C_R
    3    12.010700000 # C_2
    4    15.999400000 # O_2
    5    14.006700000 # N_R

Bond Coeffs

    1      357.440381        1.081418  # H_ C_R
    2      462.655054        1.379256  # C_R C_R
    3      391.669513        1.458000  # C_R C_R
    4      389.261715        1.461000  # C_R C_2
    5      663.718927        1.345073  # C_R N_R
    6      599.390467        1.345574  # C_2 O_2
    7      805.258367        1.219455  # C_2 O_2
    8      602.435128        0.966432  # O_2 H_
    9      529.459447        1.043423  # N_R H_

Angle Coeffs

    1       cosine/periodic	57.289016              -1               3 # H_ C_R C_R
    2      cosine/periodic	111.297508              -1               3 # C_R C_R C_R
    3      cosine/periodic	102.183280              -1               3 # C_R C_R C_R
    4      cosine/periodic	101.852144              -1               3 # C_R C_R C_2
    5      cosine/periodic	153.699352              -1               3 # C_R C_R N_R
    6      cosine/periodic	126.842893              -1               3 # C_R C_2 O_2
    7      cosine/periodic	144.391343              -1               3 # C_R C_2 O_2
    8      cosine/periodic	199.686627              -1               3 # O_2 C_2 O_2
    9       cosine/periodic	67.976975              -1               3 # C_2 O_2 H_
   10       cosine/periodic	62.535612              -1               3 # C_R N_R H_
   11       cosine/periodic	35.647060              -1               3 # H_ N_R H_

Dihedral Coeffs

    1        3.368555              -1               2 # H_ C_R C_R C_R
    2        1.250000              -1               2 # C_R C_R C_R C_R
    3        2.500000              -1               2 # C_R C_2 O_2 H_

Improper Coeffs

    1        2.000000        1.000000       -1.000000        0.000000               0 # H_ C_R C_R C_R
    2       16.666667        1.000000       -1.000000        0.000000               0 # C_R C_2 O_2 O_2

Pair Coeffs

    1        0.044000        2.571134 # H_ H_
    2        0.105000        3.430851 # C_R C_R
    3        0.105000        3.430851 # C_2 C_2
    4        0.060000        3.118146 # O_2 O_2
    5        0.069000        3.260689 # N_R N_R

Atoms

       1      444        1     0.06343    7.53202    7.31158    2.75936
       2      444        2    -0.03197    7.53803    7.33002    3.84866
       3      444        2     0.00438    7.54673    7.36496    6.68870
       4      444        2     0.08075    6.95833    8.40209    4.54037
       5      444        2    -0.01454    7.54276    7.31759    8.18133
       6      444        2     0.04651    7.07367    8.48581    5.95148
       7      444        2     0.06018    6.52482    7.93214   10.32535
       8      444        2    -0.03376    7.57424    7.34184   11.02436
       9      444        1     0.06337    7.59727    7.36610   12.10998
      10      444        2    -0.03825    8.10650    6.29588    5.95905
      11      444        2     0.06030    8.15652    6.30283    4.56012
      12      444        2     0.06018    8.59774    6.71829   10.30596
      13      444        1     0.06323    8.54872    5.45095    6.48738
      14      444        2    -0.03995    8.60424    6.75529    8.90067
      15      444        3     0.33684    8.91495    5.26324    3.82366
      16      444        4    -0.47712    9.07788    4.14176    4.54723
      17      444        4    -0.47712    9.32256    5.54963   12.18911
      18      444        4    -0.24513    9.36699    5.37420    2.70025
      19      444        1     0.06317    9.45623    6.31934    8.37675
      20      444        3     0.33684    9.69337    5.99710   10.97831
      21      444        4    -0.24513   10.77282    5.71651   10.49293
      22      444        4    -0.24513    4.36829    8.97617   10.50558
      23      444        3     0.33684    5.44398    8.68872   10.99665
      24      444        1     0.06317    5.60786    8.25492    8.43130
      25      444        4    -0.24506    5.78060    9.25116    2.61432
      26      444        4    -0.47712    5.81585    9.14782   12.20108
      27      444        4    -0.47708    6.08335   10.60240    4.36641
      28      444        3     0.33863    6.23357    9.42146    3.73062
      29      444        2    -0.03995    6.47807    7.85405    8.93500
      30      444        1     0.29541    5.06063    9.70682   12.48070
      31      444        1     0.29541   10.08071    5.00125   12.48083
      32      444        1     0.29541    5.53191   11.14754    3.76658
      33      444        1     0.29541    9.60242    3.54900    3.96867
      34      444        5    -0.35686    6.60074    9.61315    6.70181
      35      444        1     0.14236    5.81388   10.21253    6.44305
      36      444        1     0.14236    6.99174    9.83588    7.62638

Bonds

       1        1        1        2
       2        2        2        4
       3        2        2       11
       4        3        3        5
       5        2        3        6
       6        2        3       10
       7        2        4        6
       8        4        4       28
       9        2        5       14
      10        2        5       29
      11        5        6       34
      12        2        7        8
      13        4        7       23
      14        2        7       29
      15        1        8        9
      16        2        8       12
      17        2       10       11
      18        1       10       13
      19        4       11       15
      20        2       12       14
      21        4       12       20
      22        1       14       19
      23        6       15       16
      24        7       15       18
      25        8       16       33
      26        6       17       20
      27        8       17       31
      28        7       20       21
      29        7       22       23
      30        6       23       26
      31        1       24       29
      32        7       25       28
      33        8       26       30
      34        6       27       28
      35        8       27       32
      36        9       34       35
      37        9       34       36

Angles

       1        1        1        2        4
       2        1        1        2       11
       3        2        4        2       11
       4        3        5        3        6
       5        3        5        3       10
       6        2        6        3       10
       7        2        2        4        6
       8        4        2        4       28
       9        4        6        4       28
      10        3        3        5       14
      11        3        3        5       29
      12        2       14        5       29
      13        2        3        6        4
      14        5        3        6       34
      15        5        4        6       34
      16        4        8        7       23
      17        2        8        7       29
      18        4       23        7       29
      19        1        7        8        9
      20        2        7        8       12
      21        1        9        8       12
      22        2        3       10       11
      23        1        3       10       13
      24        1       11       10       13
      25        2        2       11       10
      26        4        2       11       15
      27        4       10       11       15
      28        2        8       12       14
      29        4        8       12       20
      30        4       14       12       20
      31        2        5       14       12
      32        1        5       14       19
      33        1       12       14       19
      34        6       11       15       16
      35        7       11       15       18
      36        8       16       15       18
      37        9       15       16       33
      38        9       20       17       31
      39        6       12       20       17
      40        7       12       20       21
      41        8       17       20       21
      42        7        7       23       22
      43        6        7       23       26
      44        8       22       23       26
      45        9       23       26       30
      46        9       28       27       32
      47        7        4       28       25
      48        6        4       28       27
      49        8       25       28       27
      50        2        5       29        7
      51        1        5       29       24
      52        1        7       29       24
      53       10        6       34       35
      54       10        6       34       36
      55       11       35       34       36

Dihedrals

       1        1        1        2        4        6
       2        1        1        2        4       28
       3        1       11        2        4        6
       4        1       11        2        4       28
       5        1        1        2       11       10
       6        1        1        2       11       15
       7        1        4        2       11       10
       8        1        4        2       11       15
       9        2        6        3        5       14
      10        2        6        3        5       29
      11        2       10        3        5       14
      12        2       10        3        5       29
      13        1        5        3        6        4
      14        1        5        3        6       34
      15        1       10        3        6        4
      16        1       10        3        6       34
      17        1        5        3       10       11
      18        1        5        3       10       13
      19        1        6        3       10       11
      20        1        6        3       10       13
      21        1        2        4        6        3
      22        1        2        4        6       34
      23        1       28        4        6        3
      24        1       28        4        6       34
      25        2        2        4       28       25
      26        2        2        4       28       27
      27        2        6        4       28       25
      28        2        6        4       28       27
      29        1        3        5       14       12
      30        1        3        5       14       19
      31        1       29        5       14       12
      32        1       29        5       14       19
      33        1        3        5       29        7
      34        1        3        5       29       24
      35        1       14        5       29        7
      36        1       14        5       29       24
      37        1        3        6       34       35
      38        1        3        6       34       36
      39        1        4        6       34       35
      40        1        4        6       34       36
      41        1       23        7        8        9
      42        1       23        7        8       12
      43        1       29        7        8        9
      44        1       29        7        8       12
      45        2        8        7       23       22
      46        2        8        7       23       26
      47        2       29        7       23       22
      48        2       29        7       23       26
      49        1        8        7       29        5
      50        1        8        7       29       24
      51        1       23        7       29        5
      52        1       23        7       29       24
      53        1        7        8       12       14
      54        1        7        8       12       20
      55        1        9        8       12       14
      56        1        9        8       12       20
      57        1        3       10       11        2
      58        1        3       10       11       15
      59        1       13       10       11        2
      60        1       13       10       11       15
      61        2        2       11       15       16
      62        2        2       11       15       18
      63        2       10       11       15       16
      64        2       10       11       15       18
      65        1        8       12       14        5
      66        1        8       12       14       19
      67        1       20       12       14        5
      68        1       20       12       14       19
      69        2        8       12       20       17
      70        2        8       12       20       21
      71        2       14       12       20       17
      72        2       14       12       20       21
      73        3       11       15       16       33
      74        3       18       15       16       33
      75        3       31       17       20       12
      76        3       31       17       20       21
      77        3        7       23       26       30
      78        3       22       23       26       30
      79        3       32       27       28        4
      80        3       32       27       28       25

Impropers

       1        1        2        1        4       11
       2        1        2        4        1       11
       3        1        2       11        1        4
       4        1        3        5        6       10
       5        1        3        6        5       10
       6        1        3       10        5        6
       7        1        4        2        6       28
       8        1        4        6        2       28
       9        1        4       28        2        6
      10        1        5        3       14       29
      11        1        5       14        3       29
      12        1        5       29        3       14
      13        1        6        3        4       34
      14        1        6        4        3       34
      15        1        6       34        3        4
      16        1        7        8       23       29
      17        1        7       23        8       29
      18        1        7       29        8       23
      19        1        8        7        9       12
      20        1        8        9        7       12
      21        1        8       12        7        9
      22        1       10        3       11       13
      23        1       10       11        3       13
      24        1       10       13        3       11
      25        1       11        2       10       15
      26        1       11       10        2       15
      27        1       11       15        2       10
      28        1       12        8       14       20
      29        1       12       14        8       20
      30        1       12       20        8       14
      31        1       14        5       12       19
      32        1       14       12        5       19
      33        1       14       19        5       12
      34        2       15       11       16       18
      35        2       15       16       11       18
      36        2       15       18       11       16
      37        2       20       12       17       21
      38        2       20       17       12       21
      39        2       20       21       12       17
      40        2       23        7       22       26
      41        2       23       22        7       26
      42        2       23       26        7       22
      43        2       28        4       25       27
      44        2       28       25        4       27
      45        2       28       27        4       25
      46        1       29        5        7       24
      47        1       29        7        5       24
      48        1       29       24        5        7
      49        1       34        6       35       36
      50        1       34       35        6       36
      51        1       34       36        6       35
