Created on Fri Jul 19 13:03:41 2024 

          18 atoms
          18 bonds
          26 angles
          36 dihedrals
          24 impropers

           5 atom types
           7 bond types
           8 angle types
           3 dihedral types
           2 improper types
           0.000000  15.000000 xlo xhi
           0.000000  15.000000 ylo yhi
           0.000000  15.000000 zlo zhi
           0.000000   0.000000   0.000000 xy xz yz

Masses

    1    12.010700000 # C_R
    2     1.007940000 # H_
    3    15.999400000 # O_2
    4    12.010700000 # C_2
    5    35.453000000 # Cl

Bond Coeffs

    1      357.440381        1.081418  # C_R H_
    2      462.655054        1.379256  # C_R C_R
    3      277.880341        1.750578  # C_R Cl
    4      805.258367        1.219455  # O_2 C_2
    5      599.390467        1.345574  # O_2 C_2
    6      602.435128        0.966432  # O_2 H_
    7      389.261715        1.461000  # C_R C_2

Angle Coeffs

    1       cosine/periodic	57.289016              -1               3 # H_ C_R C_R
    2      cosine/periodic	111.297508              -1               3 # C_R C_R C_R
    3       cosine/periodic	91.878144              -1               3 # C_R C_R Cl
    4       cosine/periodic	67.976975              -1               3 # C_2 O_2 H_
    5      cosine/periodic	101.852144              -1               3 # C_R C_R C_2
    6      cosine/periodic	144.391343              -1               3 # O_2 C_2 C_R
    7      cosine/periodic	199.686627              -1               3 # O_2 C_2 O_2
    8      cosine/periodic	126.842893              -1               3 # C_R C_2 O_2

Dihedral Coeffs

    1        3.368555              -1               2 # H_ C_R C_R H_
    2        2.500000              -1               2 # H_ O_2 C_2 O_2
    3        1.250000              -1               2 # C_R C_R C_2 O_2

Improper Coeffs

    1        2.000000        1.000000       -1.000000        0.000000               0 # H_ C_R C_R C_R
    2       16.666667        1.000000       -1.000000        0.000000               0 # O_2 C_2 C_R O_2

Pair Coeffs

    1        0.105000        3.430851 # C_R C_R
    2        0.044000        2.571134 # H_ H_
    3        0.060000        3.118146 # O_2 O_2
    4        0.105000        3.430851 # C_2 C_2
    5        0.227000        3.516377 # Cl Cl

Atoms

       1        1        1    -0.06012    5.70826    8.48614    7.43286
       2        1        2     0.06261    5.83381    8.39233    5.29644
       3        1        1     0.06886    8.19027    7.13934    7.45643
       4        1        3    -0.24508    7.45600    7.23421    3.84018
       5        1        2     0.06261    5.79707    8.41397    9.56773
       6        1        2     0.06180    4.75491    9.01157    7.42188
       7        1        3    -0.47709    7.35645    7.42572   11.03724
       8        1        1     0.07788    7.57232    7.47021    6.22884
       9        1        1    -0.04631    6.32918    8.14313    6.23701
      10        1        3    -0.24508    9.27366    6.70897   10.23393
      11        1        4     0.33825    8.09264    7.13872    4.87517
      12        1        4     0.33825    8.17172    7.16086    9.99919
      13        1        1     0.07788    7.55273    7.48408    8.67300
      14        1        1    -0.04631    6.31080    8.15007    8.64354
      15        1        3    -0.47709    9.37419    6.73502    4.84197
      16        1        2     0.29541    7.91638    7.15213   11.79848
      17        1        2     0.29541    9.57522    6.48535    3.91688
      18        1        5    -0.08186    9.73440    6.26818    7.49923

Bonds

       1        1        1        6
       2        2        1        9
       3        2        1       14
       4        1        2        9
       5        2        3        8
       6        2        3       13
       7        3        3       18
       8        4        4       11
       9        1        5       14
      10        5        7       12
      11        6        7       16
      12        2        8        9
      13        7        8       11
      14        4       10       12
      15        5       11       15
      16        7       12       13
      17        2       13       14
      18        6       15       17

Angles

       1        1        6        1        9
       2        1        6        1       14
       3        2        9        1       14
       4        2        8        3       13
       5        3        8        3       18
       6        3       13        3       18
       7        4       12        7       16
       8        2        3        8        9
       9        5        3        8       11
      10        5        9        8       11
      11        1        1        9        2
      12        2        1        9        8
      13        1        2        9        8
      14        6        4       11        8
      15        7        4       11       15
      16        8        8       11       15
      17        7        7       12       10
      18        8        7       12       13
      19        6       10       12       13
      20        5        3       13       12
      21        2        3       13       14
      22        5       12       13       14
      23        1        1       14        5
      24        2        1       14       13
      25        1        5       14       13
      26        4       11       15       17

Dihedrals

       1        1        6        1        9        2
       2        1        6        1        9        8
       3        1       14        1        9        2
       4        1       14        1        9        8
       5        1        6        1       14        5
       6        1        6        1       14       13
       7        1        9        1       14        5
       8        1        9        1       14       13
       9        1       13        3        8        9
      10        1       13        3        8       11
      11        1       18        3        8        9
      12        1       18        3        8       11
      13        1        8        3       13       12
      14        1        8        3       13       14
      15        1       18        3       13       12
      16        1       18        3       13       14
      17        2       16        7       12       10
      18        2       16        7       12       13
      19        1        3        8        9        1
      20        1        3        8        9        2
      21        1       11        8        9        1
      22        1       11        8        9        2
      23        3        3        8       11        4
      24        3        3        8       11       15
      25        3        9        8       11        4
      26        3        9        8       11       15
      27        2        4       11       15       17
      28        2        8       11       15       17
      29        3        7       12       13        3
      30        3        7       12       13       14
      31        3       10       12       13        3
      32        3       10       12       13       14
      33        1        3       13       14        1
      34        1        3       13       14        5
      35        1       12       13       14        1
      36        1       12       13       14        5

Impropers

       1        1        1        6        9       14
       2        1        1        9        6       14
       3        1        1       14        6        9
       4        1        3        8       13       18
       5        1        3       13        8       18
       6        1        3       18        8       13
       7        1        8        3        9       11
       8        1        8        9        3       11
       9        1        8       11        3        9
      10        1        9        1        2        8
      11        1        9        2        1        8
      12        1        9        8        1        2
      13        2       11        4        8       15
      14        2       11        8        4       15
      15        2       11       15        4        8
      16        2       12        7       10       13
      17        2       12       10        7       13
      18        2       12       13        7       10
      19        1       13        3       12       14
      20        1       13       12        3       14
      21        1       13       14        3       12
      22        1       14        1        5       13
      23        1       14        5        1       13
      24        1       14       13        1        5
