Created on Fri Jul 19 13:01:07 2024 

          18 atoms
          18 bonds
          26 angles
          36 dihedrals
          24 impropers

           5 atom types
           7 bond types
           8 angle types
           3 dihedral types
           2 improper types
           0.000000  15.000000 xlo xhi
           0.000000  15.000000 ylo yhi
           0.000000  15.000000 zlo zhi
           0.000000   0.000000   0.000000 xy xz yz

Masses

    1    12.010700000 # C_R
    2     1.007940000 # H_
    3    12.010700000 # C_2
    4    15.999400000 # O_2
    5    18.998403200 # F_

Bond Coeffs

    1      462.655054        1.379256  # C_R C_R
    2      389.261715        1.461000  # C_R C_2
    3      357.440381        1.081418  # C_R H_
    4      443.203299        1.354566  # C_R F_
    5      805.258367        1.219455  # C_2 O_2
    6      599.390467        1.345574  # C_2 O_2
    7      602.435128        0.966432  # O_2 H_

Angle Coeffs

    1      cosine/periodic	111.297508              -1               3 # C_R C_R C_R
    2      cosine/periodic	101.852144              -1               3 # C_R C_R C_2
    3       cosine/periodic	57.289016              -1               3 # C_R C_R H_
    4      cosine/periodic	103.744454              -1               3 # C_R C_R F_
    5      cosine/periodic	144.391343              -1               3 # C_R C_2 O_2
    6      cosine/periodic	126.842893              -1               3 # C_R C_2 O_2
    7      cosine/periodic	199.686627              -1               3 # O_2 C_2 O_2
    8       cosine/periodic	67.976975              -1               3 # C_2 O_2 H_

Dihedral Coeffs

    1        3.368555              -1               2 # C_R C_R C_R C_R
    2        1.250000              -1               2 # C_R C_R C_2 O_2
    3        2.500000              -1               2 # C_R C_2 O_2 H_

Improper Coeffs

    1        2.000000        1.000000       -1.000000        0.000000               0 # C_R C_R C_R C_2
    2       16.666667        1.000000       -1.000000        0.000000               0 # C_R C_2 O_2 O_2

Pair Coeffs

    1        0.105000        3.430851 # C_R C_R
    2        0.044000        2.571134 # H_ H_
    3        0.105000        3.430851 # C_2 C_2
    4        0.060000        3.118146 # O_2 O_2
    5        0.050000        2.996983 # F_ F_

Atoms

       1        1        1     0.06158    7.44821    8.90716    7.61411
       2        1        1    -0.01166    6.28672    8.13935    7.74133
       3        1        1     0.13811    6.35027    6.75105    7.62655
       4        1        2     0.06545    5.32442    8.60847    7.93020
       5        1        1     0.09394    7.56512    6.10685    7.38434
       6        1        1    -0.04420    8.73071    6.87946    7.25696
       7        1        1    -0.04682    8.67351    8.27350    7.37124
       8        1        2     0.06267    9.69044    6.39940    7.06795
       9        1        2     0.06259    9.58866    8.85339    7.26927
      10        1        3     0.33689    7.32938   10.37868    7.74441
      11        1        4    -0.24513    6.29939   10.99223    7.94897
      12        1        4    -0.47712    8.50881   11.00883    7.61282
      13        1        2     0.29541    8.28427   11.95723    7.72044
      14        1        3     0.33960    7.69205    4.63819    7.25407
      15        1        4    -0.47706    6.53351    3.97500    7.37689
      16        1        4    -0.24503    8.73628    4.04517    7.05116
      17        1        2     0.29541    6.76626    3.03014    7.27009
      18        1        5    -0.20461    5.19198    6.05589    7.75921

Bonds

       1        1        1        2
       2        1        1        7
       3        2        1       10
       4        1        2        3
       5        3        2        4
       6        1        3        5
       7        4        3       18
       8        1        5        6
       9        2        5       14
      10        1        6        7
      11        3        6        8
      12        3        7        9
      13        5       10       11
      14        6       10       12
      15        7       12       13
      16        6       14       15
      17        5       14       16
      18        7       15       17

Angles

       1        1        2        1        7
       2        2        2        1       10
       3        2        7        1       10
       4        1        1        2        3
       5        3        1        2        4
       6        3        3        2        4
       7        1        2        3        5
       8        4        2        3       18
       9        4        5        3       18
      10        1        3        5        6
      11        2        3        5       14
      12        2        6        5       14
      13        1        5        6        7
      14        3        5        6        8
      15        3        7        6        8
      16        1        1        7        6
      17        3        1        7        9
      18        3        6        7        9
      19        5        1       10       11
      20        6        1       10       12
      21        7       11       10       12
      22        8       10       12       13
      23        6        5       14       15
      24        5        5       14       16
      25        7       15       14       16
      26        8       14       15       17

Dihedrals

       1        1        7        1        2        3
       2        1        7        1        2        4
       3        1       10        1        2        3
       4        1       10        1        2        4
       5        1        2        1        7        6
       6        1        2        1        7        9
       7        1       10        1        7        6
       8        1       10        1        7        9
       9        2        2        1       10       11
      10        2        2        1       10       12
      11        2        7        1       10       11
      12        2        7        1       10       12
      13        1        1        2        3        5
      14        1        1        2        3       18
      15        1        4        2        3        5
      16        1        4        2        3       18
      17        1        2        3        5        6
      18        1        2        3        5       14
      19        1       18        3        5        6
      20        1       18        3        5       14
      21        1        3        5        6        7
      22        1        3        5        6        8
      23        1       14        5        6        7
      24        1       14        5        6        8
      25        2        3        5       14       15
      26        2        3        5       14       16
      27        2        6        5       14       15
      28        2        6        5       14       16
      29        1        5        6        7        1
      30        1        5        6        7        9
      31        1        8        6        7        1
      32        1        8        6        7        9
      33        3        1       10       12       13
      34        3       11       10       12       13
      35        3        5       14       15       17
      36        3       16       14       15       17

Impropers

       1        1        1        2        7       10
       2        1        1        7        2       10
       3        1        1       10        2        7
       4        1        2        1        3        4
       5        1        2        3        1        4
       6        1        2        4        1        3
       7        1        3        2        5       18
       8        1        3        5        2       18
       9        1        3       18        2        5
      10        1        5        3        6       14
      11        1        5        6        3       14
      12        1        5       14        3        6
      13        1        6        5        7        8
      14        1        6        7        5        8
      15        1        6        8        5        7
      16        1        7        1        6        9
      17        1        7        6        1        9
      18        1        7        9        1        6
      19        2       10        1       11       12
      20        2       10       11        1       12
      21        2       10       12        1       11
      22        2       14        5       15       16
      23        2       14       15        5       16
      24        2       14       16        5       15
