Created on Fri Jul 19 13:01:47 2024 

          24 atoms
          24 bonds
          36 angles
          48 dihedrals
          27 impropers

           5 atom types
           8 bond types
          10 angle types
           4 dihedral types
           2 improper types
           0.000000  15.000000 xlo xhi
           0.000000  15.000000 ylo yhi
           0.000000  15.000000 zlo zhi
           0.000000   0.000000   0.000000 xy xz yz

Masses

    1    15.999400000 # O_2
    2    12.010700000 # C_2
    3     1.007940000 # H_
    4    12.010700000 # C_R
    5    12.010700000 # C_3

Bond Coeffs

    1      599.390467        1.345574  # O_2 C_2
    2      602.435128        0.966432  # O_2 H_
    3      805.258367        1.219455  # O_2 C_2
    4      389.261715        1.461000  # C_2 C_R
    5      357.440381        1.081418  # H_ C_R
    6      462.655054        1.379256  # C_R C_R
    7      369.943935        1.486000  # C_R C_3
    8      331.069389        1.109401  # C_3 H_

Angle Coeffs

    1              cosine/periodic       67.976975              -1               3 # C_2 O_2 H_
    2              cosine/periodic      199.686627              -1               3 # O_2 C_2 O_2
    3              cosine/periodic      126.842893              -1               3 # O_2 C_2 C_R
    4              cosine/periodic      144.391343              -1               3 # O_2 C_2 C_R
    5              cosine/periodic      101.852144              -1               3 # C_2 C_R C_R
    6              cosine/periodic      111.297508              -1               3 # C_R C_R C_R
    7              cosine/periodic       99.137149              -1               3 # C_R C_R C_3
    8              cosine/periodic       57.289016              -1               3 # H_ C_R C_R
    9                      fourier      121.777217        0.343737        0.374972        0.281246 # C_R C_3 H_
   10                      fourier       75.498766        0.343737        0.374972        0.281246 # H_ C_3 H_

Dihedral Coeffs

    1        2.500000              -1               2 # H_ O_2 C_2 O_2
    2        1.250000              -1               2 # O_2 C_2 C_R C_R
    3        3.368555              -1               2 # C_2 C_R C_R C_R
    4        0.166667               1               3 # C_R C_R C_3 H_

Improper Coeffs

    1       16.666667        1.000000       -1.000000        0.000000               0 # O_2 C_2 O_2 C_R
    2        2.000000        1.000000       -1.000000        0.000000               0 # C_2 C_R C_R C_R

Pair Coeffs

    1        0.060000        3.118146 # O_2 O_2
    2        0.105000        3.430851 # C_2 C_2
    3        0.044000        2.571134 # H_ H_
    4        0.105000        3.430851 # C_R C_R
    5        0.105000        3.430851 # C_3 C_3

Atoms

       1        1        1    -0.47712    8.49744    7.59211   10.72746
       2        1        1    -0.24513    5.12061    5.42984    4.72176
       3        1        1    -0.47712    8.57335   10.57107    6.45841
       4        1        1    -0.24512    7.70165    5.54686   10.50596
       5        1        1    -0.47712    5.17958    4.25043    6.62526
       6        1        1    -0.24512    7.66090    9.77335    4.60252
       7        1        2     0.33710    7.94764    9.60222    5.76925
       8        1        2     0.33710    7.94122    6.62040   10.00633
       9        1        2     0.33684    5.52885    5.29895    5.86042
      10        1        3     0.06338    6.50167    7.58999    4.89303
      11        1        3     0.06338    6.50156    5.13609    8.41645
      12        1        4     0.06328    7.64499    8.36714    6.57014
      13        1        4     0.06040    6.42467    6.25378    6.57684
      14        1        4     0.06328    7.63443    6.97017    8.57812
      15        1        4    -0.02251    8.09228    8.12993    7.90055
      16        1        4    -0.03350    6.83096    7.41510    5.91861
      17        1        4    -0.03350    6.82572    6.03619    7.89771
      18        1        3     0.29541    4.57764    3.72287    6.06122
      19        1        3     0.29541    8.73150    7.19611   11.58956
      20        1        3     0.29541    8.77599   11.28791    5.82448
      21        1        5    -0.03814    9.09343    9.10437    8.52320
      22        1        3     0.02779    9.66349    8.79807    9.40334
      23        1        3     0.02779    8.60964   10.07657    8.75307
      24        1        3     0.02779    9.94077    9.23049    7.81631

Bonds

       1        1        1        8
       2        2        1       19
       3        3        2        9
       4        1        3        7
       5        2        3       20
       6        3        4        8
       7        1        5        9
       8        2        5       18
       9        3        6        7
      10        4        7       12
      11        4        8       14
      12        4        9       13
      13        5       10       16
      14        5       11       17
      15        6       12       15
      16        6       12       16
      17        6       13       16
      18        6       13       17
      19        6       14       15
      20        6       14       17
      21        7       15       21
      22        8       21       22
      23        8       21       23
      24        8       21       24

Angles

       1        1        8        1       19
       2        1        7        3       20
       3        1        9        5       18
       4        2        3        7        6
       5        3        3        7       12
       6        4        6        7       12
       7        2        1        8        4
       8        3        1        8       14
       9        4        4        8       14
      10        2        2        9        5
      11        4        2        9       13
      12        3        5        9       13
      13        5        7       12       15
      14        5        7       12       16
      15        6       15       12       16
      16        5        9       13       16
      17        5        9       13       17
      18        6       16       13       17
      19        5        8       14       15
      20        5        8       14       17
      21        6       15       14       17
      22        6       12       15       14
      23        7       12       15       21
      24        7       14       15       21
      25        8       10       16       12
      26        8       10       16       13
      27        6       12       16       13
      28        8       11       17       13
      29        8       11       17       14
      30        6       13       17       14
      31        9       15       21       22
      32        9       15       21       23
      33        9       15       21       24
      34       10       22       21       23
      35       10       22       21       24
      36       10       23       21       24

Dihedrals

       1        1       19        1        8        4
       2        1       19        1        8       14
       3        1       20        3        7        6
       4        1       20        3        7       12
       5        1       18        5        9        2
       6        1       18        5        9       13
       7        2        3        7       12       15
       8        2        3        7       12       16
       9        2        6        7       12       15
      10        2        6        7       12       16
      11        2        1        8       14       15
      12        2        1        8       14       17
      13        2        4        8       14       15
      14        2        4        8       14       17
      15        2        2        9       13       16
      16        2        2        9       13       17
      17        2        5        9       13       16
      18        2        5        9       13       17
      19        3        7       12       15       14
      20        3        7       12       15       21
      21        3       16       12       15       14
      22        3       16       12       15       21
      23        3        7       12       16       10
      24        3        7       12       16       13
      25        3       15       12       16       10
      26        3       15       12       16       13
      27        3        9       13       16       10
      28        3        9       13       16       12
      29        3       17       13       16       10
      30        3       17       13       16       12
      31        3        9       13       17       11
      32        3        9       13       17       14
      33        3       16       13       17       11
      34        3       16       13       17       14
      35        3        8       14       15       12
      36        3        8       14       15       21
      37        3       17       14       15       12
      38        3       17       14       15       21
      39        3        8       14       17       11
      40        3        8       14       17       13
      41        3       15       14       17       11
      42        3       15       14       17       13
      43        4       12       15       21       22
      44        4       12       15       21       23
      45        4       12       15       21       24
      46        4       14       15       21       22
      47        4       14       15       21       23
      48        4       14       15       21       24

Impropers

       1        1        7        3        6       12
       2        1        7        6        3       12
       3        1        7       12        3        6
       4        1        8        1        4       14
       5        1        8        4        1       14
       6        1        8       14        1        4
       7        1        9        2        5       13
       8        1        9        5        2       13
       9        1        9       13        2        5
      10        2       12        7       15       16
      11        2       12       15        7       16
      12        2       12       16        7       15
      13        2       13        9       16       17
      14        2       13       16        9       17
      15        2       13       17        9       16
      16        2       14        8       15       17
      17        2       14       15        8       17
      18        2       14       17        8       15
      19        2       15       12       14       21
      20        2       15       14       12       21
      21        2       15       21       12       14
      22        2       16       10       12       13
      23        2       16       12       10       13
      24        2       16       13       10       12
      25        2       17       11       13       14
      26        2       17       13       11       14
      27        2       17       14       11       13
