Created on Fri Jul 19 13:01:19 2024 

          19 atoms
          19 bonds
          27 angles
          38 dihedrals
          24 impropers

           5 atom types
           8 bond types
           9 angle types
           4 dihedral types
           2 improper types
           0.000000  15.000000 xlo xhi
           0.000000  15.000000 ylo yhi
           0.000000  15.000000 zlo zhi
           0.000000   0.000000   0.000000 xy xz yz

Masses

    1    12.010700000 # C_R
    2     1.007940000 # H_
    3    12.010700000 # C_2
    4    15.999400000 # O_2
    5    32.065000000 # S_3+6

Bond Coeffs

    1      462.655054        1.379256  # C_R C_R
    2      389.261715        1.461000  # C_R C_2
    3      357.440381        1.081418  # C_R H_
    4      320.755144        1.749010  # C_R S_3+6
    5      805.258367        1.219455  # C_2 O_2
    6      599.390467        1.345574  # C_2 O_2
    7      602.435128        0.966432  # O_2 H_
    8      248.314392        1.370399  # S_3+6 H_

Angle Coeffs

    1              cosine/periodic      111.297508              -1               3 # C_R C_R C_R
    2              cosine/periodic      101.852144              -1               3 # C_R C_R C_2
    3              cosine/periodic       57.289016              -1               3 # C_R C_R H_
    4              cosine/periodic      105.943006              -1               3 # C_R C_R S_3+6
    5              cosine/periodic      144.391343              -1               3 # C_R C_2 O_2
    6              cosine/periodic      126.842893              -1               3 # C_R C_2 O_2
    7              cosine/periodic      199.686627              -1               3 # O_2 C_2 O_2
    8              cosine/periodic       67.976975              -1               3 # C_2 O_2 H_
    9                      fourier       70.974262        0.343737        0.374972        0.281246 # C_R S_3+6 H_

Dihedral Coeffs

    1        3.368555              -1               2 # C_R C_R C_R C_R
    2        1.250000              -1               2 # C_R C_R C_2 O_2
    3        1.976424               1               2 # C_R C_R S_3+6 H_
    4        2.500000              -1               2 # C_R C_2 O_2 H_

Improper Coeffs

    1        2.000000        1.000000       -1.000000        0.000000               0 # C_R C_R C_R C_2
    2       16.666667        1.000000       -1.000000        0.000000               0 # C_R C_2 O_2 O_2

Pair Coeffs

    1        0.105000        3.430851 # C_R C_R
    2        0.044000        2.571134 # H_ H_
    3        0.105000        3.430851 # C_2 C_2
    4        0.060000        3.118146 # O_2 O_2
    5        0.274000        3.594776 # S_3+6 S_3+6

Atoms

       1        1        1     0.05990    7.63193    9.00833    7.59501
       2        1        1    -0.03379    6.45090    8.26124    7.67547
       3        1        1     0.01949    6.44356    6.86779    7.47527
       4        1        2     0.06367    5.51024    8.78831    7.83386
       5        1        1     0.07198    7.66984    6.19460    7.29130
       6        1        1    -0.04593    8.86292    6.96423    7.23768
       7        1        1    -0.04693    8.83939    8.35879    7.35024
       8        1        2     0.06262    9.81962    6.47449    7.05015
       9        1        2     0.06259    9.76191    8.92257    7.22411
      10        1        3     0.33684    7.51905   10.48616    7.70047
      11        1        4    -0.24513    6.48844   11.10485    7.88219
      12        1        4    -0.47712    8.69592   11.11737    7.55771
      13        1        2     0.29541    8.45714   12.06617    7.62994
      14        1        3     0.33787    7.86047    4.73259    7.13027
      15        1        4    -0.47710    6.76912    3.99539    7.39815
      16        1        4    -0.24509    8.90637    4.18339    6.81724
      17        1        2     0.29541    7.02906    3.07970    7.18876
      18        1        5    -0.14180    4.84514    6.04582    7.53587
      19        1        2     0.10713    4.93899    5.84821    8.92630

Bonds

       1        1        1        2
       2        1        1        7
       3        2        1       10
       4        1        2        3
       5        3        2        4
       6        1        3        5
       7        4        3       18
       8        1        5        6
       9        2        5       14
      10        1        6        7
      11        3        6        8
      12        3        7        9
      13        5       10       11
      14        6       10       12
      15        7       12       13
      16        6       14       15
      17        5       14       16
      18        7       15       17
      19        8       18       19

Angles

       1        1        2        1        7
       2        2        2        1       10
       3        2        7        1       10
       4        1        1        2        3
       5        3        1        2        4
       6        3        3        2        4
       7        1        2        3        5
       8        4        2        3       18
       9        4        5        3       18
      10        1        3        5        6
      11        2        3        5       14
      12        2        6        5       14
      13        1        5        6        7
      14        3        5        6        8
      15        3        7        6        8
      16        1        1        7        6
      17        3        1        7        9
      18        3        6        7        9
      19        5        1       10       11
      20        6        1       10       12
      21        7       11       10       12
      22        8       10       12       13
      23        6        5       14       15
      24        5        5       14       16
      25        7       15       14       16
      26        8       14       15       17
      27        9        3       18       19

Dihedrals

       1        1        7        1        2        3
       2        1        7        1        2        4
       3        1       10        1        2        3
       4        1       10        1        2        4
       5        1        2        1        7        6
       6        1        2        1        7        9
       7        1       10        1        7        6
       8        1       10        1        7        9
       9        2        2        1       10       11
      10        2        2        1       10       12
      11        2        7        1       10       11
      12        2        7        1       10       12
      13        1        1        2        3        5
      14        1        1        2        3       18
      15        1        4        2        3        5
      16        1        4        2        3       18
      17        1        2        3        5        6
      18        1        2        3        5       14
      19        1       18        3        5        6
      20        1       18        3        5       14
      21        3        2        3       18       19
      22        3        5        3       18       19
      23        1        3        5        6        7
      24        1        3        5        6        8
      25        1       14        5        6        7
      26        1       14        5        6        8
      27        2        3        5       14       15
      28        2        3        5       14       16
      29        2        6        5       14       15
      30        2        6        5       14       16
      31        1        5        6        7        1
      32        1        5        6        7        9
      33        1        8        6        7        1
      34        1        8        6        7        9
      35        4        1       10       12       13
      36        4       11       10       12       13
      37        4        5       14       15       17
      38        4       16       14       15       17

Impropers

       1        1        1        2        7       10
       2        1        1        7        2       10
       3        1        1       10        2        7
       4        1        2        1        3        4
       5        1        2        3        1        4
       6        1        2        4        1        3
       7        1        3        2        5       18
       8        1        3        5        2       18
       9        1        3       18        2        5
      10        1        5        3        6       14
      11        1        5        6        3       14
      12        1        5       14        3        6
      13        1        6        5        7        8
      14        1        6        7        5        8
      15        1        6        8        5        7
      16        1        7        1        6        9
      17        1        7        6        1        9
      18        1        7        9        1        6
      19        2       10        1       11       12
      20        2       10       11        1       12
      21        2       10       12        1       11
      22        2       14        5       15       16
      23        2       14       15        5       16
      24        2       14       16        5       15
