Created on Fri Jul 19 13:03:26 2024 

          21 atoms
          21 bonds
          32 angles
          42 dihedrals
          24 impropers

           6 atom types
           8 bond types
          10 angle types
           4 dihedral types
           2 improper types
           0.000000  15.000000 xlo xhi
           0.000000  15.000000 ylo yhi
           0.000000  15.000000 zlo zhi
           0.000000   0.000000   0.000000 xy xz yz

Masses

    1    12.010700000 # C_R
    2     1.007940000 # H_
    3    15.999400000 # O_2
    4    12.010700000 # C_2
    5    12.010700000 # C_3
    6    18.998403200 # F_

Bond Coeffs

    1      357.440381        1.081418  # C_R H_
    2      462.655054        1.379256  # C_R C_R
    3      369.943935        1.486000  # C_R C_3
    4      805.258367        1.219455  # O_2 C_2
    5      599.390467        1.345574  # O_2 C_2
    6      602.435128        0.966432  # O_2 H_
    7      389.261715        1.461000  # C_R C_2
    8      417.765733        1.381520  # C_3 F_

Angle Coeffs

    1              cosine/periodic       57.289016              -1               3 # H_ C_R C_R
    2              cosine/periodic      111.297508              -1               3 # C_R C_R C_R
    3              cosine/periodic       99.137149              -1               3 # C_R C_R C_3
    4              cosine/periodic       67.976975              -1               3 # C_2 O_2 H_
    5              cosine/periodic      101.852144              -1               3 # C_R C_R C_2
    6              cosine/periodic      144.391343              -1               3 # O_2 C_2 C_R
    7              cosine/periodic      199.686627              -1               3 # O_2 C_2 O_2
    8              cosine/periodic      126.842893              -1               3 # C_R C_2 O_2
    9                      fourier      228.308706        0.343737        0.374972        0.281246 # C_R C_3 F_
   10                      fourier      232.152372        0.343737        0.374972        0.281246 # F_ C_3 F_

Dihedral Coeffs

    1        3.368555              -1               2 # H_ C_R C_R H_
    2        0.166667               1               3 # C_R C_R C_3 F_
    3        2.500000              -1               2 # H_ O_2 C_2 O_2
    4        1.250000              -1               2 # C_R C_R C_2 O_2

Improper Coeffs

    1        2.000000        1.000000       -1.000000        0.000000               0 # H_ C_R C_R C_R
    2       16.666667        1.000000       -1.000000        0.000000               0 # O_2 C_2 C_R O_2

Pair Coeffs

    1        0.105000        3.430851 # C_R C_R
    2        0.044000        2.571134 # H_ H_
    3        0.060000        3.118146 # O_2 O_2
    4        0.105000        3.430851 # C_2 C_2
    5        0.105000        3.430851 # C_3 C_3
    6        0.050000        2.996983 # F_ F_

Atoms

       1        1        1    -0.06019    5.35875    8.64610    7.44791
       2        1        2     0.06258    5.46551    8.52699    5.31350
       3        1        1     0.08265    7.89040    7.35071    7.46916
       4        1        3    -0.24512    7.27290    7.72653    3.83356
       5        1        2     0.06258    5.43354    8.54383    9.57915
       6        1        2     0.06180    4.40415    9.16520    7.43924
       7        1        3    -0.47712    7.08672    7.75556   11.06146
       8        1        1     0.07123    7.21166    7.62540    6.24332
       9        1        1    -0.04718    5.97030    8.28587    6.25121
      10        1        3    -0.24512    8.57806    6.35555   10.23318
      11        1        4     0.33737    7.71764    7.28108    4.88289
      12        1        4     0.33737    7.72078    7.18637   10.02002
      13        1        1     0.07123    7.20011    7.63358    8.68569
      14        1        1    -0.04718    5.95969    8.30000    8.65269
      15        1        3    -0.47712    8.71653    6.39794    4.87479
      16        1        2     0.29541    7.52487    7.33688   11.83609
      17        1        2     0.29541    9.11630    6.44248    3.97971
      18        1        5     0.41895    9.34807    6.83587    7.44377
      19        1        6    -0.16585   10.07366    7.56070    6.51277
      20        1        6    -0.16585   10.06353    7.05736    8.59762
      21        1        6    -0.16585    9.38686    5.48599    7.14225

Bonds

       1        1        1        6
       2        2        1        9
       3        2        1       14
       4        1        2        9
       5        2        3        8
       6        2        3       13
       7        3        3       18
       8        4        4       11
       9        1        5       14
      10        5        7       12
      11        6        7       16
      12        2        8        9
      13        7        8       11
      14        4       10       12
      15        5       11       15
      16        7       12       13
      17        2       13       14
      18        6       15       17
      19        8       18       19
      20        8       18       20
      21        8       18       21

Angles

       1        1        6        1        9
       2        1        6        1       14
       3        2        9        1       14
       4        2        8        3       13
       5        3        8        3       18
       6        3       13        3       18
       7        4       12        7       16
       8        2        3        8        9
       9        5        3        8       11
      10        5        9        8       11
      11        1        1        9        2
      12        2        1        9        8
      13        1        2        9        8
      14        6        4       11        8
      15        7        4       11       15
      16        8        8       11       15
      17        7        7       12       10
      18        8        7       12       13
      19        6       10       12       13
      20        5        3       13       12
      21        2        3       13       14
      22        5       12       13       14
      23        1        1       14        5
      24        2        1       14       13
      25        1        5       14       13
      26        4       11       15       17
      27        9        3       18       19
      28        9        3       18       20
      29        9        3       18       21
      30       10       19       18       20
      31       10       19       18       21
      32       10       20       18       21

Dihedrals

       1        1        6        1        9        2
       2        1        6        1        9        8
       3        1       14        1        9        2
       4        1       14        1        9        8
       5        1        6        1       14        5
       6        1        6        1       14       13
       7        1        9        1       14        5
       8        1        9        1       14       13
       9        1       13        3        8        9
      10        1       13        3        8       11
      11        1       18        3        8        9
      12        1       18        3        8       11
      13        1        8        3       13       12
      14        1        8        3       13       14
      15        1       18        3       13       12
      16        1       18        3       13       14
      17        2        8        3       18       19
      18        2        8        3       18       20
      19        2        8        3       18       21
      20        2       13        3       18       19
      21        2       13        3       18       20
      22        2       13        3       18       21
      23        3       16        7       12       10
      24        3       16        7       12       13
      25        1        3        8        9        1
      26        1        3        8        9        2
      27        1       11        8        9        1
      28        1       11        8        9        2
      29        4        3        8       11        4
      30        4        3        8       11       15
      31        4        9        8       11        4
      32        4        9        8       11       15
      33        3        4       11       15       17
      34        3        8       11       15       17
      35        4        7       12       13        3
      36        4        7       12       13       14
      37        4       10       12       13        3
      38        4       10       12       13       14
      39        1        3       13       14        1
      40        1        3       13       14        5
      41        1       12       13       14        1
      42        1       12       13       14        5

Impropers

       1        1        1        6        9       14
       2        1        1        9        6       14
       3        1        1       14        6        9
       4        1        3        8       13       18
       5        1        3       13        8       18
       6        1        3       18        8       13
       7        1        8        3        9       11
       8        1        8        9        3       11
       9        1        8       11        3        9
      10        1        9        1        2        8
      11        1        9        2        1        8
      12        1        9        8        1        2
      13        2       11        4        8       15
      14        2       11        8        4       15
      15        2       11       15        4        8
      16        2       12        7       10       13
      17        2       12       10        7       13
      18        2       12       13        7       10
      19        1       13        3       12       14
      20        1       13       12        3       14
      21        1       13       14        3       12
      22        1       14        1        5       13
      23        1       14        5        1       13
      24        1       14       13        1        5
