Created on Fri Jul 19 13:02:14 2024 

          35 atoms
          36 bonds
          53 angles
          78 dihedrals
          48 impropers

           5 atom types
           9 bond types
          10 angle types
           4 dihedral types
           2 improper types
           0.000000  15.000000 xlo xhi
           0.000000  15.000000 ylo yhi
           0.000000  15.000000 zlo zhi
           0.000000   0.000000   0.000000 xy xz yz

Masses

    1    12.010700000 # C_2
    2    12.010700000 # C_R
    3    15.999400000 # O_2
    4     1.007940000 # H_
    5    15.999400000 # O_3

Bond Coeffs

    1      599.390467        1.345574  # C_2 O_2
    2      389.261715        1.461000  # C_2 C_R
    3      805.258367        1.219455  # C_2 O_2
    4      462.655054        1.379256  # C_R C_R
    5      572.510195        1.366311  # C_R O_3
    6      602.435128        0.966432  # O_2 H_
    7      357.440381        1.081418  # H_ C_R
    8      391.669513        1.458000  # C_R C_R
    9      559.995206        0.990254  # O_3 H_

Angle Coeffs

    1              cosine/periodic      126.842893              -1               3 # O_2 C_2 C_R
    2              cosine/periodic      199.686627              -1               3 # O_2 C_2 O_2
    3              cosine/periodic      144.391343              -1               3 # C_R C_2 O_2
    4              cosine/periodic      111.297508              -1               3 # C_R C_R C_R
    5              cosine/periodic      135.781731              -1               3 # C_R C_R O_3
    6              cosine/periodic       67.976975              -1               3 # C_2 O_2 H_
    7              cosine/periodic       57.289016              -1               3 # C_R C_R H_
    8              cosine/periodic      101.852144              -1               3 # C_2 C_R C_R
    9              cosine/periodic      102.183280              -1               3 # C_R C_R C_R
   10                      fourier      181.607508        0.300235        0.267331        0.266745 # C_R O_3 H_

Dihedral Coeffs

    1        2.500000              -1               2 # C_R C_2 O_2 H_
    2        1.250000              -1               2 # O_2 C_2 C_R C_R
    3        3.368555              -1               2 # C_R C_R C_R H_
    4        2.500000               1               2 # C_R C_R O_3 H_

Improper Coeffs

    1       16.666667        1.000000       -1.000000        0.000000               0 # O_2 C_2 C_R O_2
    2        2.000000        1.000000       -1.000000        0.000000               0 # C_R C_R C_R O_3

Pair Coeffs

    1        0.105000        3.430851 # C_2 C_2
    2        0.105000        3.430851 # C_R C_R
    3        0.060000        3.118146 # O_2 O_2
    4        0.044000        2.571134 # H_ H_
    5        0.060000        3.118146 # O_3 O_3

Atoms

       1      444        1     0.34098    5.87886    6.90922    9.13321
       2      444        2     0.13145    6.83620    4.79374    8.25058
       3      444        3    -0.47703    6.13470    6.67927   10.43463
       4      444        4     0.06544    7.54125    3.01196    7.24682
       5      444        2    -0.01854    7.53118    4.09856    7.27020
       6      444        1     0.33742    5.90989    8.52748    5.29085
       7      444        2     0.10858    6.79184    6.19218    8.21768
       8      444        3    -0.24511    6.00713    8.79405    4.11047
       9      444        2    -0.04369    8.23165    4.79900    6.28773
      10      444        2     0.01516    7.51267    6.93157    7.24715
      11      444        4     0.06270    8.76817    4.26279    5.50779
      12      444        2     0.06734    6.74979    9.15971    6.33374
      13      444        2     0.06757    8.25435    6.20565    6.29888
      14      444        4     0.06258    6.24728   11.12151    5.58518
      15      444        2     0.01172    7.49994    8.40791    7.26550
      16      444        2    -0.04714    6.79056   10.55731    6.34528
      17      444        3    -0.24511    8.92325    6.67829    4.07435
      18      444        1     0.33742    9.07572    6.87579    5.26546
      19      444        2     0.06734    8.23453    9.12441    8.23696
      20      444        2    -0.06017    7.51484   11.23635    7.32860
      21      444        3    -0.47711    8.86722    8.65132   10.43544
      22      444        4     0.06180    7.53067   12.32247    7.33172
      23      444        1     0.33742    9.13632    8.39452    9.14997
      24      444        2    -0.04714    8.22885   10.52296    8.28563
      25      444        3    -0.47711   10.04072    7.65874    5.79143
      26      444        3    -0.24511    9.96849    7.59190    8.77071
      27      444        4     0.06258    8.80162   11.05179    9.04023
      28      444        3    -0.47711    4.99170    7.67652    5.80796
      29      444        3    -0.24498    5.05871    7.69927    8.69882
      30      444        4     0.29541    4.86292    7.74848    6.78205
      31      444        4     0.29541    6.71024    5.90012   10.57952
      32      444        4     0.29541   10.16413    7.58709    6.76390
      33      444        4     0.29541    9.46894    8.09551   10.97317
      34      444        5    -0.50592    6.12530    4.10006    9.16751
      35      444        4     0.29216    6.11035    3.13247    9.19088

Bonds

       1        1        1        3
       2        2        1        7
       3        3        1       29
       4        4        2        5
       5        4        2        7
       6        5        2       34
       7        6        3       31
       8        7        4        5
       9        4        5        9
      10        3        6        8
      11        2        6       12
      12        1        6       28
      13        4        7       10
      14        7        9       11
      15        4        9       13
      16        4       10       13
      17        8       10       15
      18        4       12       15
      19        4       12       16
      20        2       13       18
      21        7       14       16
      22        4       15       19
      23        4       16       20
      24        3       17       18
      25        1       18       25
      26        2       19       23
      27        4       19       24
      28        7       20       22
      29        4       20       24
      30        1       21       23
      31        6       21       33
      32        3       23       26
      33        7       24       27
      34        6       25       32
      35        6       28       30
      36        9       34       35

Angles

       1        1        3        1        7
       2        2        3        1       29
       3        3        7        1       29
       4        4        5        2        7
       5        5        5        2       34
       6        5        7        2       34
       7        6        1        3       31
       8        7        2        5        4
       9        4        2        5        9
      10        7        4        5        9
      11        3        8        6       12
      12        2        8        6       28
      13        1       12        6       28
      14        8        1        7        2
      15        8        1        7       10
      16        4        2        7       10
      17        7        5        9       11
      18        4        5        9       13
      19        7       11        9       13
      20        4        7       10       13
      21        9        7       10       15
      22        9       13       10       15
      23        8        6       12       15
      24        8        6       12       16
      25        4       15       12       16
      26        4        9       13       10
      27        8        9       13       18
      28        8       10       13       18
      29        9       10       15       12
      30        9       10       15       19
      31        4       12       15       19
      32        7       12       16       14
      33        4       12       16       20
      34        7       14       16       20
      35        3       13       18       17
      36        1       13       18       25
      37        2       17       18       25
      38        8       15       19       23
      39        4       15       19       24
      40        8       23       19       24
      41        7       16       20       22
      42        4       16       20       24
      43        7       22       20       24
      44        6       23       21       33
      45        1       19       23       21
      46        3       19       23       26
      47        2       21       23       26
      48        4       19       24       20
      49        7       19       24       27
      50        7       20       24       27
      51        6       18       25       32
      52        6        6       28       30
      53       10        2       34       35

Dihedrals

       1        1        7        1        3       31
       2        1       29        1        3       31
       3        2        3        1        7        2
       4        2        3        1        7       10
       5        2       29        1        7        2
       6        2       29        1        7       10
       7        3        7        2        5        4
       8        3        7        2        5        9
       9        3       34        2        5        4
      10        3       34        2        5        9
      11        3        5        2        7        1
      12        3        5        2        7       10
      13        3       34        2        7        1
      14        3       34        2        7       10
      15        4        5        2       34       35
      16        4        7        2       34       35
      17        3        2        5        9       11
      18        3        2        5        9       13
      19        3        4        5        9       11
      20        3        4        5        9       13
      21        2        8        6       12       15
      22        2        8        6       12       16
      23        2       28        6       12       15
      24        2       28        6       12       16
      25        1        8        6       28       30
      26        1       12        6       28       30
      27        3        1        7       10       13
      28        3        1        7       10       15
      29        3        2        7       10       13
      30        3        2        7       10       15
      31        3        5        9       13       10
      32        3        5        9       13       18
      33        3       11        9       13       10
      34        3       11        9       13       18
      35        3        7       10       13        9
      36        3        7       10       13       18
      37        3       15       10       13        9
      38        3       15       10       13       18
      39        2        7       10       15       12
      40        2        7       10       15       19
      41        2       13       10       15       12
      42        2       13       10       15       19
      43        3        6       12       15       10
      44        3        6       12       15       19
      45        3       16       12       15       10
      46        3       16       12       15       19
      47        3        6       12       16       14
      48        3        6       12       16       20
      49        3       15       12       16       14
      50        3       15       12       16       20
      51        2        9       13       18       17
      52        2        9       13       18       25
      53        2       10       13       18       17
      54        2       10       13       18       25
      55        3       10       15       19       23
      56        3       10       15       19       24
      57        3       12       15       19       23
      58        3       12       15       19       24
      59        3       12       16       20       22
      60        3       12       16       20       24
      61        3       14       16       20       22
      62        3       14       16       20       24
      63        1       13       18       25       32
      64        1       17       18       25       32
      65        2       15       19       23       21
      66        2       15       19       23       26
      67        2       24       19       23       21
      68        2       24       19       23       26
      69        3       15       19       24       20
      70        3       15       19       24       27
      71        3       23       19       24       20
      72        3       23       19       24       27
      73        3       16       20       24       19
      74        3       16       20       24       27
      75        3       22       20       24       19
      76        3       22       20       24       27
      77        1       33       21       23       19
      78        1       33       21       23       26

Impropers

       1        1        1        3        7       29
       2        1        1        7        3       29
       3        1        1       29        3        7
       4        2        2        5        7       34
       5        2        2        7        5       34
       6        2        2       34        5        7
       7        2        5        2        4        9
       8        2        5        4        2        9
       9        2        5        9        2        4
      10        1        6        8       12       28
      11        1        6       12        8       28
      12        1        6       28        8       12
      13        2        7        1        2       10
      14        2        7        2        1       10
      15        2        7       10        1        2
      16        2        9        5       11       13
      17        2        9       11        5       13
      18        2        9       13        5       11
      19        2       10        7       13       15
      20        2       10       13        7       15
      21        2       10       15        7       13
      22        2       12        6       15       16
      23        2       12       15        6       16
      24        2       12       16        6       15
      25        2       13        9       10       18
      26        2       13       10        9       18
      27        2       13       18        9       10
      28        2       15       10       12       19
      29        2       15       12       10       19
      30        2       15       19       10       12
      31        2       16       12       14       20
      32        2       16       14       12       20
      33        2       16       20       12       14
      34        1       18       13       17       25
      35        1       18       17       13       25
      36        1       18       25       13       17
      37        2       19       15       23       24
      38        2       19       23       15       24
      39        2       19       24       15       23
      40        2       20       16       22       24
      41        2       20       22       16       24
      42        2       20       24       16       22
      43        1       23       19       21       26
      44        1       23       21       19       26
      45        1       23       26       19       21
      46        2       24       19       20       27
      47        2       24       20       19       27
      48        2       24       27       19       20
