Created on Fri Jul 19 13:03:23 2024 

          20 atoms
          20 bonds
          29 angles
          40 dihedrals
          27 impropers

           6 atom types
           8 bond types
          10 angle types
           3 dihedral types
           2 improper types
           0.000000  15.000000 xlo xhi
           0.000000  15.000000 ylo yhi
           0.000000  15.000000 zlo zhi
           0.000000   0.000000   0.000000 xy xz yz

Masses

    1    12.010700000 # C_R
    2     1.007940000 # H_
    3    15.999400000 # O_2
    4    12.010700000 # C_2
    5    14.006700000 # N_R
    6    15.999400000 # O_R

Bond Coeffs

    1      357.440381        1.081418  # C_R H_
    2      462.655054        1.379256  # C_R C_R
    3      561.491352        1.422196  # C_R N_R
    4      805.258367        1.219455  # O_2 C_2
    5      599.390467        1.345574  # O_2 C_2
    6      602.435128        0.966432  # O_2 H_
    7      389.261715        1.461000  # C_R C_2
    8      884.941708        1.299717  # N_R O_R

Angle Coeffs

    1       cosine/periodic	57.289016              -1               3 # H_ C_R C_R
    2      cosine/periodic	111.297508              -1               3 # C_R C_R C_R
    3      cosine/periodic	141.337441              -1               3 # C_R C_R N_R
    4       cosine/periodic	67.976975              -1               3 # C_2 O_2 H_
    5      cosine/periodic	101.852144              -1               3 # C_R C_R C_2
    6      cosine/periodic	144.391343              -1               3 # O_2 C_2 C_R
    7      cosine/periodic	199.686627              -1               3 # O_2 C_2 O_2
    8      cosine/periodic	126.842893              -1               3 # C_R C_2 O_2
    9      cosine/periodic	138.990244              -1               3 # C_R N_R O_R
   10      cosine/periodic	192.465780              -1               3 # O_R N_R O_R

Dihedral Coeffs

    1        3.368555              -1               2 # H_ C_R C_R H_
    2        1.250000              -1               2 # C_R C_R N_R O_R
    3        2.500000              -1               2 # H_ O_2 C_2 O_2

Improper Coeffs

    1        2.000000        1.000000       -1.000000        0.000000               0 # H_ C_R C_R C_R
    2       16.666667        1.000000       -1.000000        0.000000               0 # O_2 C_2 C_R O_2

Pair Coeffs

    1        0.105000        3.430851 # C_R C_R
    2        0.044000        2.571134 # H_ H_
    3        0.060000        3.118146 # O_2 O_2
    4        0.105000        3.430851 # C_2 C_2
    5        0.069000        3.260689 # N_R N_R
    6        0.060000        3.118146 # O_R O_R

Atoms

       1        1        1    -0.06007    5.49885    8.62737    7.46090
       2        1        2     0.06263    5.60986    8.57739    5.31871
       3        1        1     0.15402    7.95509    7.29360    7.44741
       4        1        3    -0.24505    7.19112    7.26188    3.85994
       5        1        2     0.06263    5.59333    8.51855    9.59386
       6        1        2     0.06180    4.54104    9.14647    7.46631
       7        1        3    -0.47708    7.18881    7.60658   11.04329
       8        1        1     0.08974    7.34495    7.64076    6.22520
       9        1        1    -0.04551    6.10951    8.30480    6.24886
      10        1        3    -0.24505    8.88155    6.45671   10.18329
      11        1        4     0.33905    7.86801    7.32653    4.87050
      12        1        4     0.33905    7.90189    7.15169    9.99300
      13        1        1     0.08974    7.33596    7.58201    8.68242
      14        1        1    -0.04551    6.10488    8.26610    8.66485
      15        1        3    -0.47708    9.19080    7.13746    4.84604
      16        1        2     0.29541    7.66705    7.25247   11.82671
      17        1        2     0.29541    9.39174    6.75369    3.96474
      18        1        5     0.05806    9.19278    6.56902    7.43859
      19        1        6    -0.12610    9.31569    5.58830    6.76783
      20        1        6    -0.12610   10.11708    6.93863    8.09758

Bonds

       1        1        1        6
       2        2        1        9
       3        2        1       14
       4        1        2        9
       5        2        3        8
       6        2        3       13
       7        3        3       18
       8        4        4       11
       9        1        5       14
      10        5        7       12
      11        6        7       16
      12        2        8        9
      13        7        8       11
      14        4       10       12
      15        5       11       15
      16        7       12       13
      17        2       13       14
      18        6       15       17
      19        8       18       19
      20        8       18       20

Angles

       1        1        6        1        9
       2        1        6        1       14
       3        2        9        1       14
       4        2        8        3       13
       5        3        8        3       18
       6        3       13        3       18
       7        4       12        7       16
       8        2        3        8        9
       9        5        3        8       11
      10        5        9        8       11
      11        1        1        9        2
      12        2        1        9        8
      13        1        2        9        8
      14        6        4       11        8
      15        7        4       11       15
      16        8        8       11       15
      17        7        7       12       10
      18        8        7       12       13
      19        6       10       12       13
      20        5        3       13       12
      21        2        3       13       14
      22        5       12       13       14
      23        1        1       14        5
      24        2        1       14       13
      25        1        5       14       13
      26        4       11       15       17
      27        9        3       18       19
      28        9        3       18       20
      29       10       19       18       20

Dihedrals

       1        1        6        1        9        2
       2        1        6        1        9        8
       3        1       14        1        9        2
       4        1       14        1        9        8
       5        1        6        1       14        5
       6        1        6        1       14       13
       7        1        9        1       14        5
       8        1        9        1       14       13
       9        1       13        3        8        9
      10        1       13        3        8       11
      11        1       18        3        8        9
      12        1       18        3        8       11
      13        1        8        3       13       12
      14        1        8        3       13       14
      15        1       18        3       13       12
      16        1       18        3       13       14
      17        2        8        3       18       19
      18        2        8        3       18       20
      19        2       13        3       18       19
      20        2       13        3       18       20
      21        3       16        7       12       10
      22        3       16        7       12       13
      23        1        3        8        9        1
      24        1        3        8        9        2
      25        1       11        8        9        1
      26        1       11        8        9        2
      27        2        3        8       11        4
      28        2        3        8       11       15
      29        2        9        8       11        4
      30        2        9        8       11       15
      31        3        4       11       15       17
      32        3        8       11       15       17
      33        2        7       12       13        3
      34        2        7       12       13       14
      35        2       10       12       13        3
      36        2       10       12       13       14
      37        1        3       13       14        1
      38        1        3       13       14        5
      39        1       12       13       14        1
      40        1       12       13       14        5

Impropers

       1        1        1        6        9       14
       2        1        1        9        6       14
       3        1        1       14        6        9
       4        1        3        8       13       18
       5        1        3       13        8       18
       6        1        3       18        8       13
       7        1        8        3        9       11
       8        1        8        9        3       11
       9        1        8       11        3        9
      10        1        9        1        2        8
      11        1        9        2        1        8
      12        1        9        8        1        2
      13        2       11        4        8       15
      14        2       11        8        4       15
      15        2       11       15        4        8
      16        2       12        7       10       13
      17        2       12       10        7       13
      18        2       12       13        7       10
      19        1       13        3       12       14
      20        1       13       12        3       14
      21        1       13       14        3       12
      22        1       14        1        5       13
      23        1       14        5        1       13
      24        1       14       13        1        5
      25        1       18        3       19       20
      26        1       18       19        3       20
      27        1       18       20        3       19
