Created on Fri Jul 19 13:01:59 2024 

          22 atoms
          22 bonds
          31 angles
          44 dihedrals
          27 impropers

           5 atom types
           8 bond types
           9 angle types
           4 dihedral types
           2 improper types
           0.000000  15.000000 xlo xhi
           0.000000  15.000000 ylo yhi
           0.000000  15.000000 zlo zhi
           0.000000   0.000000   0.000000 xy xz yz

Masses

    1    15.999400000 # O_2
    2    12.010700000 # C_2
    3     1.007940000 # H_
    4    12.010700000 # C_R
    5    15.999400000 # O_3

Bond Coeffs

    1      599.390467        1.345574  # O_2 C_2
    2      602.435128        0.966432  # O_2 H_
    3      805.258367        1.219455  # O_2 C_2
    4      389.261715        1.461000  # C_2 C_R
    5      357.440381        1.081418  # H_ C_R
    6      462.655054        1.379256  # C_R C_R
    7      572.510195        1.366311  # C_R O_3
    8      559.995206        0.990254  # O_3 H_

Angle Coeffs

    1              cosine/periodic       67.976975              -1               3 # C_2 O_2 H_
    2              cosine/periodic      199.686627              -1               3 # O_2 C_2 O_2
    3              cosine/periodic      126.842893              -1               3 # O_2 C_2 C_R
    4              cosine/periodic      144.391343              -1               3 # O_2 C_2 C_R
    5              cosine/periodic      101.852144              -1               3 # C_2 C_R C_R
    6              cosine/periodic      111.297508              -1               3 # C_R C_R C_R
    7              cosine/periodic      135.781731              -1               3 # C_R C_R O_3
    8              cosine/periodic       57.289016              -1               3 # H_ C_R C_R
    9                      fourier      181.607508        0.300235        0.267331        0.266745 # C_R O_3 H_

Dihedral Coeffs

    1        2.500000              -1               2 # H_ O_2 C_2 O_2
    2        1.250000              -1               2 # O_2 C_2 C_R C_R
    3        3.368555              -1               2 # C_2 C_R C_R C_R
    4        2.500000               1               2 # C_R C_R O_3 H_

Improper Coeffs

    1       16.666667        1.000000       -1.000000        0.000000               0 # O_2 C_2 O_2 C_R
    2        2.000000        1.000000       -1.000000        0.000000               0 # C_2 C_R C_R C_R

Pair Coeffs

    1        0.060000        3.118146 # O_2 O_2
    2        0.105000        3.430851 # C_2 C_2
    3        0.044000        2.571134 # H_ H_
    4        0.105000        3.430851 # C_R C_R
    5        0.060000        3.118146 # O_3 O_3

Atoms

       1        1        1    -0.47704    9.03660    7.66559   10.64034
       2        1        1    -0.24513    5.32865    5.57529    4.81436
       3        1        1    -0.47704    9.01828   10.55690    6.58184
       4        1        1    -0.24500    7.74729    5.85262   10.72270
       5        1        1    -0.47712    5.39094    4.37481    6.69923
       6        1        1    -0.24500    7.77033   10.02199    4.81528
       7        1        2     0.34040    8.16753    9.74267    5.93188
       8        1        2     0.34040    8.16659    6.80380   10.08782
       9        1        2     0.33685    5.75239    5.42960    5.94532
      10        1        3     0.06349    6.75334    7.71032    4.97482
      11        1        3     0.06349    6.75990    5.22571    8.49538
      12        1        4     0.10169    7.81464    8.51180    6.68579
      13        1        4     0.06061    6.65632    6.37021    6.66583
      14        1        4     0.10169    7.80907    7.10560    8.67608
      15        1        4     0.14480    8.13753    8.31026    8.03768
      16        1        4    -0.03020    7.06237    7.53850    6.00876
      17        1        4    -0.03020    7.05920    6.14062    7.98093
      18        1        3     0.29541    4.76841    3.87262    6.12906
      19        1        3     0.29541    9.06774    7.42362   11.58773
      20        1        3     0.29541    9.05906   11.36058    6.02042
      21        1        5    -0.50512    8.76138    9.23410    8.81300
      22        1        3     0.29220    8.91244   10.17278    8.68573

Bonds

       1        1        1        8
       2        2        1       19
       3        3        2        9
       4        1        3        7
       5        2        3       20
       6        3        4        8
       7        1        5        9
       8        2        5       18
       9        3        6        7
      10        4        7       12
      11        4        8       14
      12        4        9       13
      13        5       10       16
      14        5       11       17
      15        6       12       15
      16        6       12       16
      17        6       13       16
      18        6       13       17
      19        6       14       15
      20        6       14       17
      21        7       15       21
      22        8       21       22

Angles

       1        1        8        1       19
       2        1        7        3       20
       3        1        9        5       18
       4        2        3        7        6
       5        3        3        7       12
       6        4        6        7       12
       7        2        1        8        4
       8        3        1        8       14
       9        4        4        8       14
      10        2        2        9        5
      11        4        2        9       13
      12        3        5        9       13
      13        5        7       12       15
      14        5        7       12       16
      15        6       15       12       16
      16        5        9       13       16
      17        5        9       13       17
      18        6       16       13       17
      19        5        8       14       15
      20        5        8       14       17
      21        6       15       14       17
      22        6       12       15       14
      23        7       12       15       21
      24        7       14       15       21
      25        8       10       16       12
      26        8       10       16       13
      27        6       12       16       13
      28        8       11       17       13
      29        8       11       17       14
      30        6       13       17       14
      31        9       15       21       22

Dihedrals

       1        1       19        1        8        4
       2        1       19        1        8       14
       3        1       20        3        7        6
       4        1       20        3        7       12
       5        1       18        5        9        2
       6        1       18        5        9       13
       7        2        3        7       12       15
       8        2        3        7       12       16
       9        2        6        7       12       15
      10        2        6        7       12       16
      11        2        1        8       14       15
      12        2        1        8       14       17
      13        2        4        8       14       15
      14        2        4        8       14       17
      15        2        2        9       13       16
      16        2        2        9       13       17
      17        2        5        9       13       16
      18        2        5        9       13       17
      19        3        7       12       15       14
      20        3        7       12       15       21
      21        3       16       12       15       14
      22        3       16       12       15       21
      23        3        7       12       16       10
      24        3        7       12       16       13
      25        3       15       12       16       10
      26        3       15       12       16       13
      27        3        9       13       16       10
      28        3        9       13       16       12
      29        3       17       13       16       10
      30        3       17       13       16       12
      31        3        9       13       17       11
      32        3        9       13       17       14
      33        3       16       13       17       11
      34        3       16       13       17       14
      35        3        8       14       15       12
      36        3        8       14       15       21
      37        3       17       14       15       12
      38        3       17       14       15       21
      39        3        8       14       17       11
      40        3        8       14       17       13
      41        3       15       14       17       11
      42        3       15       14       17       13
      43        4       12       15       21       22
      44        4       14       15       21       22

Impropers

       1        1        7        3        6       12
       2        1        7        6        3       12
       3        1        7       12        3        6
       4        1        8        1        4       14
       5        1        8        4        1       14
       6        1        8       14        1        4
       7        1        9        2        5       13
       8        1        9        5        2       13
       9        1        9       13        2        5
      10        2       12        7       15       16
      11        2       12       15        7       16
      12        2       12       16        7       15
      13        2       13        9       16       17
      14        2       13       16        9       17
      15        2       13       17        9       16
      16        2       14        8       15       17
      17        2       14       15        8       17
      18        2       14       17        8       15
      19        2       15       12       14       21
      20        2       15       14       12       21
      21        2       15       21       12       14
      22        2       16       10       12       13
      23        2       16       12       10       13
      24        2       16       13       10       12
      25        2       17       11       13       14
      26        2       17       13       11       14
      27        2       17       14       11       13
