Created on Fri Jul 19 13:01:10 2024 

          21 atoms
          21 bonds
          32 angles
          42 dihedrals
          24 impropers

           5 atom types
           8 bond types
          10 angle types
           4 dihedral types
           2 improper types
           0.000000  15.000000 xlo xhi
           0.000000  15.000000 ylo yhi
           0.000000  15.000000 zlo zhi
           0.000000   0.000000   0.000000 xy xz yz

Masses

    1    12.010700000 # C_R
    2     1.007940000 # H_
    3    12.010700000 # C_2
    4    15.999400000 # O_2
    5    12.010700000 # C_3

Bond Coeffs

    1      462.655054        1.379256  # C_R C_R
    2      389.261715        1.461000  # C_R C_2
    3      357.440381        1.081418  # C_R H_
    4      369.943935        1.486000  # C_R C_3
    5      805.258367        1.219455  # C_2 O_2
    6      599.390467        1.345574  # C_2 O_2
    7      602.435128        0.966432  # O_2 H_
    8      331.069389        1.109401  # C_3 H_

Angle Coeffs

    1              cosine/periodic      111.297508              -1               3 # C_R C_R C_R
    2              cosine/periodic      101.852144              -1               3 # C_R C_R C_2
    3              cosine/periodic       57.289016              -1               3 # C_R C_R H_
    4              cosine/periodic       99.137149              -1               3 # C_R C_R C_3
    5              cosine/periodic      144.391343              -1               3 # C_R C_2 O_2
    6              cosine/periodic      126.842893              -1               3 # C_R C_2 O_2
    7              cosine/periodic      199.686627              -1               3 # O_2 C_2 O_2
    8              cosine/periodic       67.976975              -1               3 # C_2 O_2 H_
    9                      fourier      121.777217        0.343737        0.374972        0.281246 # C_R C_3 H_
   10                      fourier       75.498766        0.343737        0.374972        0.281246 # H_ C_3 H_

Dihedral Coeffs

    1        3.368555              -1               2 # C_R C_R C_R C_R
    2        1.250000              -1               2 # C_R C_R C_2 O_2
    3        0.166667               1               3 # C_R C_R C_3 H_
    4        2.500000              -1               2 # C_R C_2 O_2 H_

Improper Coeffs

    1        2.000000        1.000000       -1.000000        0.000000               0 # C_R C_R C_R C_2
    2       16.666667        1.000000       -1.000000        0.000000               0 # C_R C_2 O_2 O_2

Pair Coeffs

    1        0.105000        3.430851 # C_R C_R
    2        0.044000        2.571134 # H_ H_
    3        0.105000        3.430851 # C_2 C_2
    4        0.060000        3.118146 # O_2 O_2
    5        0.105000        3.430851 # C_3 C_3

Atoms

       1        1        1     0.05912    7.84999    9.15966    7.57036
       2        1        1    -0.04408    6.68983    8.38787    7.70626
       3        1        1    -0.03572    6.72163    6.97977    7.61216
       4        1        2     0.06285    5.74115    8.89248    7.88975
       5        1        1     0.06177    7.95101    6.34248    7.33853
       6        1        1    -0.04674    9.11532    7.12866    7.20749
       7        1        1    -0.04698    9.07003    8.52253    7.32557
       8        1        2     0.06259   10.07482    6.65320    7.01016
       9        1        2     0.06258    9.98592    9.09854    7.21978
      10        1        3     0.33681    7.72312   10.63441    7.69272
      11        1        4    -0.24513    6.68853   11.24878    7.89463
      12        1        4    -0.47712    8.89797   11.27180    7.56132
      13        1        2     0.29541    8.66567   12.21870    7.66091
      14        1        3     0.33706    8.14560    4.86805    7.17996
      15        1        4    -0.47712    7.01300    4.14993    7.17200
      16        1        4    -0.24512    9.22271    4.31280    7.05478
      17        1        2     0.29541    7.30862    3.21820    7.11844
      18        1        5    -0.03891    5.41572    6.24309    7.78675
      19        1        2     0.02777    5.15568    5.69806    6.85562
      20        1        2     0.02777    4.57299    6.93380    8.00240
      21        1        2     0.02777    5.49069    5.53718    8.64041

Bonds

       1        1        1        2
       2        1        1        7
       3        2        1       10
       4        1        2        3
       5        3        2        4
       6        1        3        5
       7        4        3       18
       8        1        5        6
       9        2        5       14
      10        1        6        7
      11        3        6        8
      12        3        7        9
      13        5       10       11
      14        6       10       12
      15        7       12       13
      16        6       14       15
      17        5       14       16
      18        7       15       17
      19        8       18       19
      20        8       18       20
      21        8       18       21

Angles

       1        1        2        1        7
       2        2        2        1       10
       3        2        7        1       10
       4        1        1        2        3
       5        3        1        2        4
       6        3        3        2        4
       7        1        2        3        5
       8        4        2        3       18
       9        4        5        3       18
      10        1        3        5        6
      11        2        3        5       14
      12        2        6        5       14
      13        1        5        6        7
      14        3        5        6        8
      15        3        7        6        8
      16        1        1        7        6
      17        3        1        7        9
      18        3        6        7        9
      19        5        1       10       11
      20        6        1       10       12
      21        7       11       10       12
      22        8       10       12       13
      23        6        5       14       15
      24        5        5       14       16
      25        7       15       14       16
      26        8       14       15       17
      27        9        3       18       19
      28        9        3       18       20
      29        9        3       18       21
      30       10       19       18       20
      31       10       19       18       21
      32       10       20       18       21

Dihedrals

       1        1        7        1        2        3
       2        1        7        1        2        4
       3        1       10        1        2        3
       4        1       10        1        2        4
       5        1        2        1        7        6
       6        1        2        1        7        9
       7        1       10        1        7        6
       8        1       10        1        7        9
       9        2        2        1       10       11
      10        2        2        1       10       12
      11        2        7        1       10       11
      12        2        7        1       10       12
      13        1        1        2        3        5
      14        1        1        2        3       18
      15        1        4        2        3        5
      16        1        4        2        3       18
      17        1        2        3        5        6
      18        1        2        3        5       14
      19        1       18        3        5        6
      20        1       18        3        5       14
      21        3        2        3       18       19
      22        3        2        3       18       20
      23        3        2        3       18       21
      24        3        5        3       18       19
      25        3        5        3       18       20
      26        3        5        3       18       21
      27        1        3        5        6        7
      28        1        3        5        6        8
      29        1       14        5        6        7
      30        1       14        5        6        8
      31        2        3        5       14       15
      32        2        3        5       14       16
      33        2        6        5       14       15
      34        2        6        5       14       16
      35        1        5        6        7        1
      36        1        5        6        7        9
      37        1        8        6        7        1
      38        1        8        6        7        9
      39        4        1       10       12       13
      40        4       11       10       12       13
      41        4        5       14       15       17
      42        4       16       14       15       17

Impropers

       1        1        1        2        7       10
       2        1        1        7        2       10
       3        1        1       10        2        7
       4        1        2        1        3        4
       5        1        2        3        1        4
       6        1        2        4        1        3
       7        1        3        2        5       18
       8        1        3        5        2       18
       9        1        3       18        2        5
      10        1        5        3        6       14
      11        1        5        6        3       14
      12        1        5       14        3        6
      13        1        6        5        7        8
      14        1        6        7        5        8
      15        1        6        8        5        7
      16        1        7        1        6        9
      17        1        7        6        1        9
      18        1        7        9        1        6
      19        2       10        1       11       12
      20        2       10       11        1       12
      21        2       10       12        1       11
      22        2       14        5       15       16
      23        2       14       15        5       16
      24        2       14       16        5       15
