Created on Fri Jul 19 13:03:47 2024 

          21 atoms
          21 bonds
          30 angles
          42 dihedrals
          27 impropers

           4 atom types
           6 bond types
           7 angle types
           3 dihedral types
           2 improper types
           0.000000  15.000000 xlo xhi
           0.000000  15.000000 ylo yhi
           0.000000  15.000000 zlo zhi
           0.000000   0.000000   0.000000 xy xz yz

Masses

    1    12.010700000 # C_R
    2     1.007940000 # H_
    3    15.999400000 # O_2
    4    12.010700000 # C_2

Bond Coeffs

    1      357.440381        1.081418  # C_R H_
    2      462.655054        1.379256  # C_R C_R
    3      389.261715        1.461000  # C_R C_2
    4      805.258367        1.219455  # O_2 C_2
    5      599.390467        1.345574  # O_2 C_2
    6      602.435128        0.966432  # O_2 H_

Angle Coeffs

    1       cosine/periodic	57.289016              -1               3 # H_ C_R C_R
    2      cosine/periodic	111.297508              -1               3 # C_R C_R C_R
    3      cosine/periodic	101.852144              -1               3 # C_R C_R C_2
    4       cosine/periodic	67.976975              -1               3 # C_2 O_2 H_
    5      cosine/periodic	144.391343              -1               3 # O_2 C_2 C_R
    6      cosine/periodic	199.686627              -1               3 # O_2 C_2 O_2
    7      cosine/periodic	126.842893              -1               3 # C_R C_2 O_2

Dihedral Coeffs

    1        3.368555              -1               2 # H_ C_R C_R H_
    2        1.250000              -1               2 # C_R C_R C_2 O_2
    3        2.500000              -1               2 # H_ O_2 C_2 O_2

Improper Coeffs

    1        2.000000        1.000000       -1.000000        0.000000               0 # H_ C_R C_R C_R
    2       16.666667        1.000000       -1.000000        0.000000               0 # O_2 C_2 C_R O_2

Pair Coeffs

    1        0.105000        3.430851 # C_R C_R
    2        0.044000        2.571134 # H_ H_
    3        0.060000        3.118146 # O_2 O_2
    4        0.105000        3.430851 # C_2 C_2

Atoms

       1        1        1    -0.06017    5.26026    8.63643    7.45765
       2        1        2     0.06259    5.37384    8.54519    5.31343
       3        1        1     0.08667    7.73553    7.33804    7.46523
       4        1        3    -0.24511    7.10736    7.46928    3.84506
       5        1        2     0.06259    5.35754    8.54892    9.59875
       6        1        2     0.06180    4.29872    9.14773    7.45378
       7        1        3    -0.47711    6.98648    7.53163   11.04113
       8        1        1     0.07356    7.12352    7.65406    6.23919
       9        1        1    -0.04693    5.87833    8.30529    6.25054
      10        1        3    -0.24511    8.88977    6.84748   10.14413
      11        1        4     0.33762    7.69137    7.31136    4.90594
      12        1        4     0.33762    7.77479    7.29800    9.97587
      13        1        1     0.07356    7.11638    7.65218    8.68673
      14        1        1    -0.04693    5.87120    8.30268    8.66975
      15        1        3    -0.47711    8.92999    6.81532    4.93408
      16        1        2     0.29541    7.54683    7.23909   11.79231
      17        1        2     0.29541    9.16154    6.58155    4.01324
      18        1        4     0.33841    9.05240    6.63622    7.49923
      19        1        3    -0.24508    9.13335    5.50760    7.96734
      20        1        3    -0.47709   10.17071    7.27481    7.09173
      21        1        2     0.29541   11.04012    6.85714    7.15490

Bonds

       1        1        1        6
       2        2        1        9
       3        2        1       14
       4        1        2        9
       5        2        3        8
       6        2        3       13
       7        3        3       18
       8        4        4       11
       9        1        5       14
      10        5        7       12
      11        6        7       16
      12        2        8        9
      13        3        8       11
      14        4       10       12
      15        5       11       15
      16        3       12       13
      17        2       13       14
      18        6       15       17
      19        4       18       19
      20        5       18       20
      21        6       20       21

Angles

       1        1        6        1        9
       2        1        6        1       14
       3        2        9        1       14
       4        2        8        3       13
       5        3        8        3       18
       6        3       13        3       18
       7        4       12        7       16
       8        2        3        8        9
       9        3        3        8       11
      10        3        9        8       11
      11        1        1        9        2
      12        2        1        9        8
      13        1        2        9        8
      14        5        4       11        8
      15        6        4       11       15
      16        7        8       11       15
      17        6        7       12       10
      18        7        7       12       13
      19        5       10       12       13
      20        3        3       13       12
      21        2        3       13       14
      22        3       12       13       14
      23        1        1       14        5
      24        2        1       14       13
      25        1        5       14       13
      26        4       11       15       17
      27        5        3       18       19
      28        7        3       18       20
      29        6       19       18       20
      30        4       18       20       21

Dihedrals

       1        1        6        1        9        2
       2        1        6        1        9        8
       3        1       14        1        9        2
       4        1       14        1        9        8
       5        1        6        1       14        5
       6        1        6        1       14       13
       7        1        9        1       14        5
       8        1        9        1       14       13
       9        1       13        3        8        9
      10        1       13        3        8       11
      11        1       18        3        8        9
      12        1       18        3        8       11
      13        1        8        3       13       12
      14        1        8        3       13       14
      15        1       18        3       13       12
      16        1       18        3       13       14
      17        2        8        3       18       19
      18        2        8        3       18       20
      19        2       13        3       18       19
      20        2       13        3       18       20
      21        3       16        7       12       10
      22        3       16        7       12       13
      23        1        3        8        9        1
      24        1        3        8        9        2
      25        1       11        8        9        1
      26        1       11        8        9        2
      27        2        3        8       11        4
      28        2        3        8       11       15
      29        2        9        8       11        4
      30        2        9        8       11       15
      31        3        4       11       15       17
      32        3        8       11       15       17
      33        2        7       12       13        3
      34        2        7       12       13       14
      35        2       10       12       13        3
      36        2       10       12       13       14
      37        1        3       13       14        1
      38        1        3       13       14        5
      39        1       12       13       14        1
      40        1       12       13       14        5
      41        3        3       18       20       21
      42        3       19       18       20       21

Impropers

       1        1        1        6        9       14
       2        1        1        9        6       14
       3        1        1       14        6        9
       4        1        3        8       13       18
       5        1        3       13        8       18
       6        1        3       18        8       13
       7        1        8        3        9       11
       8        1        8        9        3       11
       9        1        8       11        3        9
      10        1        9        1        2        8
      11        1        9        2        1        8
      12        1        9        8        1        2
      13        2       11        4        8       15
      14        2       11        8        4       15
      15        2       11       15        4        8
      16        2       12        7       10       13
      17        2       12       10        7       13
      18        2       12       13        7       10
      19        1       13        3       12       14
      20        1       13       12        3       14
      21        1       13       14        3       12
      22        1       14        1        5       13
      23        1       14        5        1       13
      24        1       14       13        1        5
      25        2       18        3       19       20
      26        2       18       19        3       20
      27        2       18       20        3       19
