Created on Fri Jul 19 13:03:44 2024 

          19 atoms
          19 bonds
          27 angles
          38 dihedrals
          24 impropers

           5 atom types
           8 bond types
           9 angle types
           4 dihedral types
           2 improper types
           0.000000  15.000000 xlo xhi
           0.000000  15.000000 ylo yhi
           0.000000  15.000000 zlo zhi
           0.000000   0.000000   0.000000 xy xz yz

Masses

    1    12.010700000 # C_R
    2     1.007940000 # H_
    3    15.999400000 # O_2
    4    12.010700000 # C_2
    5    15.999400000 # O_3

Bond Coeffs

    1      357.440381        1.081418  # C_R H_
    2      462.655054        1.379256  # C_R C_R
    3      572.510195        1.366311  # C_R O_3
    4      805.258367        1.219455  # O_2 C_2
    5      599.390467        1.345574  # O_2 C_2
    6      602.435128        0.966432  # O_2 H_
    7      389.261715        1.461000  # C_R C_2
    8      559.995206        0.990254  # O_3 H_

Angle Coeffs

    1              cosine/periodic       57.289016              -1               3 # H_ C_R C_R
    2              cosine/periodic      111.297508              -1               3 # C_R C_R C_R
    3              cosine/periodic      135.781731              -1               3 # C_R C_R O_3
    4              cosine/periodic       67.976975              -1               3 # C_2 O_2 H_
    5              cosine/periodic      101.852144              -1               3 # C_R C_R C_2
    6              cosine/periodic      144.391343              -1               3 # O_2 C_2 C_R
    7              cosine/periodic      199.686627              -1               3 # O_2 C_2 O_2
    8              cosine/periodic      126.842893              -1               3 # C_R C_2 O_2
    9                      fourier      181.607508        0.300235        0.267331        0.266745 # C_R O_3 H_

Dihedral Coeffs

    1        3.368555              -1               2 # H_ C_R C_R H_
    2        2.500000               1               2 # C_R C_R O_3 H_
    3        2.500000              -1               2 # H_ O_2 C_2 O_2
    4        1.250000              -1               2 # C_R C_R C_2 O_2

Improper Coeffs

    1        2.000000        1.000000       -1.000000        0.000000               0 # H_ C_R C_R C_R
    2       16.666667        1.000000       -1.000000        0.000000               0 # O_2 C_2 C_R O_2

Pair Coeffs

    1        0.105000        3.430851 # C_R C_R
    2        0.044000        2.571134 # H_ H_
    3        0.060000        3.118146 # O_2 O_2
    4        0.105000        3.430851 # C_2 C_2
    5        0.060000        3.118146 # O_3 O_3

Atoms

       1        1        1    -0.05998    5.57883    8.56268    7.42671
       2        1        2     0.06268    5.72878    8.46301    5.28500
       3        1        1     0.14476    8.03913    7.21107    7.48018
       4        1        3    -0.24500    7.51284    7.40248    3.84275
       5        1        2     0.06268    5.65825    8.50537    9.56816
       6        1        2     0.06180    4.63112    9.10073    7.40516
       7        1        3    -0.47704    7.26293    7.49415   11.03961
       8        1        1     0.10091    7.43905    7.53539    6.25343
       9        1        1    -0.04418    6.20122    8.20890    6.23341
      10        1        3    -0.24500    9.15768    6.75073   10.19561
      11        1        4     0.34038    8.02865    7.20375    4.92831
      12        1        4     0.34038    8.05584    7.22101    9.98391
      13        1        1     0.10091    7.40563    7.55983    8.68291
      14        1        1    -0.04418    6.16937    8.22955    8.64710
      15        1        3    -0.47704    9.25662    6.65345    5.01922
      16        1        2     0.29541    7.83500    7.21147   11.78542
      17        1        2     0.29541    9.50820    6.51460    4.07803
      18        1        5    -0.50512    9.21510    6.54454    7.63225
      19        1        2     0.29220    9.81575    6.12731    7.01283

Bonds

       1        1        1        6
       2        2        1        9
       3        2        1       14
       4        1        2        9
       5        2        3        8
       6        2        3       13
       7        3        3       18
       8        4        4       11
       9        1        5       14
      10        5        7       12
      11        6        7       16
      12        2        8        9
      13        7        8       11
      14        4       10       12
      15        5       11       15
      16        7       12       13
      17        2       13       14
      18        6       15       17
      19        8       18       19

Angles

       1        1        6        1        9
       2        1        6        1       14
       3        2        9        1       14
       4        2        8        3       13
       5        3        8        3       18
       6        3       13        3       18
       7        4       12        7       16
       8        2        3        8        9
       9        5        3        8       11
      10        5        9        8       11
      11        1        1        9        2
      12        2        1        9        8
      13        1        2        9        8
      14        6        4       11        8
      15        7        4       11       15
      16        8        8       11       15
      17        7        7       12       10
      18        8        7       12       13
      19        6       10       12       13
      20        5        3       13       12
      21        2        3       13       14
      22        5       12       13       14
      23        1        1       14        5
      24        2        1       14       13
      25        1        5       14       13
      26        4       11       15       17
      27        9        3       18       19

Dihedrals

       1        1        6        1        9        2
       2        1        6        1        9        8
       3        1       14        1        9        2
       4        1       14        1        9        8
       5        1        6        1       14        5
       6        1        6        1       14       13
       7        1        9        1       14        5
       8        1        9        1       14       13
       9        1       13        3        8        9
      10        1       13        3        8       11
      11        1       18        3        8        9
      12        1       18        3        8       11
      13        1        8        3       13       12
      14        1        8        3       13       14
      15        1       18        3       13       12
      16        1       18        3       13       14
      17        2        8        3       18       19
      18        2       13        3       18       19
      19        3       16        7       12       10
      20        3       16        7       12       13
      21        1        3        8        9        1
      22        1        3        8        9        2
      23        1       11        8        9        1
      24        1       11        8        9        2
      25        4        3        8       11        4
      26        4        3        8       11       15
      27        4        9        8       11        4
      28        4        9        8       11       15
      29        3        4       11       15       17
      30        3        8       11       15       17
      31        4        7       12       13        3
      32        4        7       12       13       14
      33        4       10       12       13        3
      34        4       10       12       13       14
      35        1        3       13       14        1
      36        1        3       13       14        5
      37        1       12       13       14        1
      38        1       12       13       14        5

Impropers

       1        1        1        6        9       14
       2        1        1        9        6       14
       3        1        1       14        6        9
       4        1        3        8       13       18
       5        1        3       13        8       18
       6        1        3       18        8       13
       7        1        8        3        9       11
       8        1        8        9        3       11
       9        1        8       11        3        9
      10        1        9        1        2        8
      11        1        9        2        1        8
      12        1        9        8        1        2
      13        2       11        4        8       15
      14        2       11        8        4       15
      15        2       11       15        4        8
      16        2       12        7       10       13
      17        2       12       10        7       13
      18        2       12       13        7       10
      19        1       13        3       12       14
      20        1       13       12        3       14
      21        1       13       14        3       12
      22        1       14        1        5       13
      23        1       14        5        1       13
      24        1       14       13        1        5
