Created on Fri Jul 19 13:00:57 2024 

          20 atoms
          20 bonds
          29 angles
          40 dihedrals
          27 impropers

           6 atom types
           8 bond types
          10 angle types
           3 dihedral types
           2 improper types
           0.000000  15.000000 xlo xhi
           0.000000  15.000000 ylo yhi
           0.000000  15.000000 zlo zhi
           0.000000   0.000000   0.000000 xy xz yz

Masses

    1    12.010700000 # C_R
    2     1.007940000 # H_
    3    12.010700000 # C_2
    4    15.999400000 # O_2
    5    14.006700000 # N_R
    6    15.999400000 # O_R

Bond Coeffs

    1      462.655054        1.379256  # C_R C_R
    2      389.261715        1.461000  # C_R C_2
    3      357.440381        1.081418  # C_R H_
    4      561.491352        1.422196  # C_R N_R
    5      805.258367        1.219455  # C_2 O_2
    6      599.390467        1.345574  # C_2 O_2
    7      602.435128        0.966432  # O_2 H_
    8      884.941708        1.299717  # N_R O_R

Angle Coeffs

    1      cosine/periodic	111.297508              -1               3 # C_R C_R C_R
    2      cosine/periodic	101.852144              -1               3 # C_R C_R C_2
    3       cosine/periodic	57.289016              -1               3 # C_R C_R H_
    4      cosine/periodic	141.337441              -1               3 # C_R C_R N_R
    5      cosine/periodic	144.391343              -1               3 # C_R C_2 O_2
    6      cosine/periodic	126.842893              -1               3 # C_R C_2 O_2
    7      cosine/periodic	199.686627              -1               3 # O_2 C_2 O_2
    8       cosine/periodic	67.976975              -1               3 # C_2 O_2 H_
    9      cosine/periodic	138.990244              -1               3 # C_R N_R O_R
   10      cosine/periodic	192.465780              -1               3 # O_R N_R O_R

Dihedral Coeffs

    1        3.368555              -1               2 # C_R C_R C_R C_R
    2        1.250000              -1               2 # C_R C_R C_2 O_2
    3        2.500000              -1               2 # C_R C_2 O_2 H_

Improper Coeffs

    1        2.000000        1.000000       -1.000000        0.000000               0 # C_R C_R C_R C_2
    2       16.666667        1.000000       -1.000000        0.000000               0 # C_R C_2 O_2 O_2

Pair Coeffs

    1        0.105000        3.430851 # C_R C_R
    2        0.044000        2.571134 # H_ H_
    3        0.105000        3.430851 # C_2 C_2
    4        0.060000        3.118146 # O_2 O_2
    5        0.069000        3.260689 # N_R N_R
    6        0.060000        3.118146 # O_R O_R

Atoms

       1        1        1     0.06103    7.73272    9.07619    7.60392
       2        1        1    -0.01669    6.57013    8.31129    7.72643
       3        1        1     0.14089    6.62518    6.90816    7.61221
       4        1        2     0.06486    5.61582    8.81320    7.89602
       5        1        1     0.08896    7.84134    6.24898    7.38581
       6        1        1    -0.04477    9.00237    7.04252    7.26013
       7        1        1    -0.04686    8.95035    8.43882    7.36516
       8        1        2     0.06265    9.96779    6.57082    7.07421
       9        1        2     0.06259    9.86832    9.01388    7.25581
      10        1        3     0.33687    7.61711   10.55233    7.72417
      11        1        4    -0.24513    6.57398   11.15516    7.92069
      12        1        4    -0.47712    8.78331   11.18955    7.59245
      13        1        2     0.29541    8.54845   12.13870    7.69355
      14        1        3     0.33903    8.06019    4.78637    7.24967
      15        1        4    -0.47708    7.04114    4.03739    7.67958
      16        1        4    -0.24505    9.07585    4.27464    6.81390
      17        1        2     0.29541    7.24149    3.12735    7.36845
      18        1        5     0.05726    5.34525    6.23955    7.65884
      19        1        6    -0.12612    4.40065    6.79695    8.13404
      20        1        6    -0.12612    5.13856    5.27812    6.98497

Bonds

       1        1        1        2
       2        1        1        7
       3        2        1       10
       4        1        2        3
       5        3        2        4
       6        1        3        5
       7        4        3       18
       8        1        5        6
       9        2        5       14
      10        1        6        7
      11        3        6        8
      12        3        7        9
      13        5       10       11
      14        6       10       12
      15        7       12       13
      16        6       14       15
      17        5       14       16
      18        7       15       17
      19        8       18       19
      20        8       18       20

Angles

       1        1        2        1        7
       2        2        2        1       10
       3        2        7        1       10
       4        1        1        2        3
       5        3        1        2        4
       6        3        3        2        4
       7        1        2        3        5
       8        4        2        3       18
       9        4        5        3       18
      10        1        3        5        6
      11        2        3        5       14
      12        2        6        5       14
      13        1        5        6        7
      14        3        5        6        8
      15        3        7        6        8
      16        1        1        7        6
      17        3        1        7        9
      18        3        6        7        9
      19        5        1       10       11
      20        6        1       10       12
      21        7       11       10       12
      22        8       10       12       13
      23        6        5       14       15
      24        5        5       14       16
      25        7       15       14       16
      26        8       14       15       17
      27        9        3       18       19
      28        9        3       18       20
      29       10       19       18       20

Dihedrals

       1        1        7        1        2        3
       2        1        7        1        2        4
       3        1       10        1        2        3
       4        1       10        1        2        4
       5        1        2        1        7        6
       6        1        2        1        7        9
       7        1       10        1        7        6
       8        1       10        1        7        9
       9        2        2        1       10       11
      10        2        2        1       10       12
      11        2        7        1       10       11
      12        2        7        1       10       12
      13        1        1        2        3        5
      14        1        1        2        3       18
      15        1        4        2        3        5
      16        1        4        2        3       18
      17        1        2        3        5        6
      18        1        2        3        5       14
      19        1       18        3        5        6
      20        1       18        3        5       14
      21        2        2        3       18       19
      22        2        2        3       18       20
      23        2        5        3       18       19
      24        2        5        3       18       20
      25        1        3        5        6        7
      26        1        3        5        6        8
      27        1       14        5        6        7
      28        1       14        5        6        8
      29        2        3        5       14       15
      30        2        3        5       14       16
      31        2        6        5       14       15
      32        2        6        5       14       16
      33        1        5        6        7        1
      34        1        5        6        7        9
      35        1        8        6        7        1
      36        1        8        6        7        9
      37        3        1       10       12       13
      38        3       11       10       12       13
      39        3        5       14       15       17
      40        3       16       14       15       17

Impropers

       1        1        1        2        7       10
       2        1        1        7        2       10
       3        1        1       10        2        7
       4        1        2        1        3        4
       5        1        2        3        1        4
       6        1        2        4        1        3
       7        1        3        2        5       18
       8        1        3        5        2       18
       9        1        3       18        2        5
      10        1        5        3        6       14
      11        1        5        6        3       14
      12        1        5       14        3        6
      13        1        6        5        7        8
      14        1        6        7        5        8
      15        1        6        8        5        7
      16        1        7        1        6        9
      17        1        7        6        1        9
      18        1        7        9        1        6
      19        2       10        1       11       12
      20        2       10       11        1       12
      21        2       10       12        1       11
      22        2       14        5       15       16
      23        2       14       15        5       16
      24        2       14       16        5       15
      25        1       18        3       19       20
      26        1       18       19        3       20
      27        1       18       20        3       19
