Created on Fri Jul 19 13:03:08 2024 

          37 atoms
          38 bonds
          56 angles
          82 dihedrals
          51 impropers

           4 atom types
           7 bond types
           8 angle types
           3 dihedral types
           2 improper types
           0.000000  15.000000 xlo xhi
           0.000000  15.000000 ylo yhi
           0.000000  15.000000 zlo zhi
           0.000000   0.000000   0.000000 xy xz yz

Masses

    1     1.007940000 # H_
    2    12.010700000 # C_R
    3    12.010700000 # C_2
    4    15.999400000 # O_2

Bond Coeffs

    1      357.440381        1.081418  # H_ C_R
    2      462.655054        1.379256  # C_R C_R
    3      391.669513        1.458000  # C_R C_R
    4      389.261715        1.461000  # C_R C_2
    5      599.390467        1.345574  # C_2 O_2
    6      805.258367        1.219455  # C_2 O_2
    7      602.435128        0.966432  # O_2 H_

Angle Coeffs

    1       cosine/periodic	57.289016              -1               3 # H_ C_R C_R
    2      cosine/periodic	111.297508              -1               3 # C_R C_R C_R
    3      cosine/periodic	102.183280              -1               3 # C_R C_R C_R
    4      cosine/periodic	101.852144              -1               3 # C_R C_R C_2
    5      cosine/periodic	126.842893              -1               3 # C_R C_2 O_2
    6      cosine/periodic	144.391343              -1               3 # C_R C_2 O_2
    7      cosine/periodic	199.686627              -1               3 # O_2 C_2 O_2
    8       cosine/periodic	67.976975              -1               3 # C_2 O_2 H_

Dihedral Coeffs

    1        3.368555              -1               2 # H_ C_R C_R C_R
    2        1.250000              -1               2 # C_R C_R C_R C_R
    3        2.500000              -1               2 # C_R C_2 O_2 H_

Improper Coeffs

    1        2.000000        1.000000       -1.000000        0.000000               0 # H_ C_R C_R C_R
    2       16.666667        1.000000       -1.000000        0.000000               0 # C_R C_2 O_2 O_2

Pair Coeffs

    1        0.044000        2.571134 # H_ H_
    2        0.105000        3.430851 # C_R C_R
    3        0.105000        3.430851 # C_2 C_2
    4        0.060000        3.118146 # O_2 O_2

Atoms

       1      444        1     0.06339    7.65240    7.23307    2.73511
       2      444        2    -0.03296    7.65924    7.26397    3.82369
       3      444        2    -0.00230    7.59477    7.28815    6.67910
       4      444        2     0.07412    7.04350    8.32160    4.49942
       5      444        2    -0.01551    7.58087    7.24461    8.17056
       6      444        2     0.08047    7.02888    8.33359    5.90946
       7      444        2     0.06018    6.55614    7.83316   10.32738
       8      444        2    -0.03376    7.60531    7.25499   11.02381
       9      444        1     0.06337    7.61890    7.24809   12.11102
      10      444        2    -0.03922    8.19645    6.23496    5.95642
      11      444        2     0.06022    8.25303    6.23133    4.54902
      12      444        2     0.06018    8.62750    6.62372   10.30361
      13      444        1     0.06319    8.62634    5.38566    6.48534
      14      444        2    -0.03999    8.63921    6.66577    8.90028
      15      444        3     0.33684    8.96821    5.16310    3.81734
      16      444        4    -0.47712    9.10741    4.03897    4.54594
      17      444        4    -0.47712    9.35658    5.45995   12.20344
      18      444        4    -0.24513    9.40953    5.25323    2.68819
      19      444        1     0.06317    9.49174    6.22764    8.38284
      20      444        3     0.33684    9.71987    5.88790   10.98399
      21      444        4    -0.24513   10.78884    5.60687   10.49546
      22      444        4    -0.24513    4.38459    8.84512   10.52411
      23      444        3     0.33684    5.46922    8.57456   11.00201
      24      444        1     0.06317    5.62703    8.16096    8.45196
      25      444        4    -0.24511    5.75085    9.07235    2.63986
      26      444        4    -0.47712    5.84098    9.03703   12.20709
      27      444        4    -0.47711    6.27281   10.56654    4.21043
      28      444        3     0.33764    6.31057    9.32571    3.69000
      29      444        2    -0.03999    6.52207    7.76869    8.93076
      30      444        1     0.29541    5.07677    9.58547   12.48544
      31      444        1     0.29541   10.11752    4.91467   12.49660
      32      444        1     0.29541    5.56110   11.02010    3.70838
      33      444        1     0.29541    9.60635    3.43127    3.96520
      34      444        3     0.33820    6.39957    9.49644    6.61965
      35      444        4    -0.24509    5.26418    9.85881    6.33586
      36      444        4    -0.47710    7.07459   10.13447    7.60038
      37      444        1     0.29541    6.69708   10.90746    8.04086

Bonds

       1        1        1        2
       2        2        2        4
       3        2        2       11
       4        3        3        5
       5        2        3        6
       6        2        3       10
       7        2        4        6
       8        4        4       28
       9        2        5       14
      10        2        5       29
      11        4        6       34
      12        2        7        8
      13        4        7       23
      14        2        7       29
      15        1        8        9
      16        2        8       12
      17        2       10       11
      18        1       10       13
      19        4       11       15
      20        2       12       14
      21        4       12       20
      22        1       14       19
      23        5       15       16
      24        6       15       18
      25        7       16       33
      26        5       17       20
      27        7       17       31
      28        6       20       21
      29        6       22       23
      30        5       23       26
      31        1       24       29
      32        6       25       28
      33        7       26       30
      34        5       27       28
      35        7       27       32
      36        6       34       35
      37        5       34       36
      38        7       36       37

Angles

       1        1        1        2        4
       2        1        1        2       11
       3        2        4        2       11
       4        3        5        3        6
       5        3        5        3       10
       6        2        6        3       10
       7        2        2        4        6
       8        4        2        4       28
       9        4        6        4       28
      10        3        3        5       14
      11        3        3        5       29
      12        2       14        5       29
      13        2        3        6        4
      14        4        3        6       34
      15        4        4        6       34
      16        4        8        7       23
      17        2        8        7       29
      18        4       23        7       29
      19        1        7        8        9
      20        2        7        8       12
      21        1        9        8       12
      22        2        3       10       11
      23        1        3       10       13
      24        1       11       10       13
      25        2        2       11       10
      26        4        2       11       15
      27        4       10       11       15
      28        2        8       12       14
      29        4        8       12       20
      30        4       14       12       20
      31        2        5       14       12
      32        1        5       14       19
      33        1       12       14       19
      34        5       11       15       16
      35        6       11       15       18
      36        7       16       15       18
      37        8       15       16       33
      38        8       20       17       31
      39        5       12       20       17
      40        6       12       20       21
      41        7       17       20       21
      42        6        7       23       22
      43        5        7       23       26
      44        7       22       23       26
      45        8       23       26       30
      46        8       28       27       32
      47        6        4       28       25
      48        5        4       28       27
      49        7       25       28       27
      50        2        5       29        7
      51        1        5       29       24
      52        1        7       29       24
      53        6        6       34       35
      54        5        6       34       36
      55        7       35       34       36
      56        8       34       36       37

Dihedrals

       1        1        1        2        4        6
       2        1        1        2        4       28
       3        1       11        2        4        6
       4        1       11        2        4       28
       5        1        1        2       11       10
       6        1        1        2       11       15
       7        1        4        2       11       10
       8        1        4        2       11       15
       9        2        6        3        5       14
      10        2        6        3        5       29
      11        2       10        3        5       14
      12        2       10        3        5       29
      13        1        5        3        6        4
      14        1        5        3        6       34
      15        1       10        3        6        4
      16        1       10        3        6       34
      17        1        5        3       10       11
      18        1        5        3       10       13
      19        1        6        3       10       11
      20        1        6        3       10       13
      21        1        2        4        6        3
      22        1        2        4        6       34
      23        1       28        4        6        3
      24        1       28        4        6       34
      25        2        2        4       28       25
      26        2        2        4       28       27
      27        2        6        4       28       25
      28        2        6        4       28       27
      29        1        3        5       14       12
      30        1        3        5       14       19
      31        1       29        5       14       12
      32        1       29        5       14       19
      33        1        3        5       29        7
      34        1        3        5       29       24
      35        1       14        5       29        7
      36        1       14        5       29       24
      37        2        3        6       34       35
      38        2        3        6       34       36
      39        2        4        6       34       35
      40        2        4        6       34       36
      41        1       23        7        8        9
      42        1       23        7        8       12
      43        1       29        7        8        9
      44        1       29        7        8       12
      45        2        8        7       23       22
      46        2        8        7       23       26
      47        2       29        7       23       22
      48        2       29        7       23       26
      49        1        8        7       29        5
      50        1        8        7       29       24
      51        1       23        7       29        5
      52        1       23        7       29       24
      53        1        7        8       12       14
      54        1        7        8       12       20
      55        1        9        8       12       14
      56        1        9        8       12       20
      57        1        3       10       11        2
      58        1        3       10       11       15
      59        1       13       10       11        2
      60        1       13       10       11       15
      61        2        2       11       15       16
      62        2        2       11       15       18
      63        2       10       11       15       16
      64        2       10       11       15       18
      65        1        8       12       14        5
      66        1        8       12       14       19
      67        1       20       12       14        5
      68        1       20       12       14       19
      69        2        8       12       20       17
      70        2        8       12       20       21
      71        2       14       12       20       17
      72        2       14       12       20       21
      73        3       11       15       16       33
      74        3       18       15       16       33
      75        3       31       17       20       12
      76        3       31       17       20       21
      77        3        7       23       26       30
      78        3       22       23       26       30
      79        3       32       27       28        4
      80        3       32       27       28       25
      81        3        6       34       36       37
      82        3       35       34       36       37

Impropers

       1        1        2        1        4       11
       2        1        2        4        1       11
       3        1        2       11        1        4
       4        1        3        5        6       10
       5        1        3        6        5       10
       6        1        3       10        5        6
       7        1        4        2        6       28
       8        1        4        6        2       28
       9        1        4       28        2        6
      10        1        5        3       14       29
      11        1        5       14        3       29
      12        1        5       29        3       14
      13        1        6        3        4       34
      14        1        6        4        3       34
      15        1        6       34        3        4
      16        1        7        8       23       29
      17        1        7       23        8       29
      18        1        7       29        8       23
      19        1        8        7        9       12
      20        1        8        9        7       12
      21        1        8       12        7        9
      22        1       10        3       11       13
      23        1       10       11        3       13
      24        1       10       13        3       11
      25        1       11        2       10       15
      26        1       11       10        2       15
      27        1       11       15        2       10
      28        1       12        8       14       20
      29        1       12       14        8       20
      30        1       12       20        8       14
      31        1       14        5       12       19
      32        1       14       12        5       19
      33        1       14       19        5       12
      34        2       15       11       16       18
      35        2       15       16       11       18
      36        2       15       18       11       16
      37        2       20       12       17       21
      38        2       20       17       12       21
      39        2       20       21       12       17
      40        2       23        7       22       26
      41        2       23       22        7       26
      42        2       23       26        7       22
      43        2       28        4       25       27
      44        2       28       25        4       27
      45        2       28       27        4       25
      46        1       29        5        7       24
      47        1       29        7        5       24
      48        1       29       24        5        7
      49        2       34        6       35       36
      50        2       34       35        6       36
      51        2       34       36        6       35
