Created on Fri Jul 19 13:00:57 2024 

          21 atoms
          21 bonds
          32 angles
          42 dihedrals
          24 impropers

           6 atom types
           8 bond types
          10 angle types
           4 dihedral types
           2 improper types
           0.000000  15.000000 xlo xhi
           0.000000  15.000000 ylo yhi
           0.000000  15.000000 zlo zhi
           0.000000   0.000000   0.000000 xy xz yz

Masses

    1    12.010700000 # C_R
    2     1.007940000 # H_
    3    12.010700000 # C_2
    4    15.999400000 # O_2
    5    12.010700000 # C_3
    6    18.998403200 # F_

Bond Coeffs

    1      462.655054        1.379256  # C_R C_R
    2      389.261715        1.461000  # C_R C_2
    3      357.440381        1.081418  # C_R H_
    4      369.943935        1.486000  # C_R C_3
    5      805.258367        1.219455  # C_2 O_2
    6      599.390467        1.345574  # C_2 O_2
    7      602.435128        0.966432  # O_2 H_
    8      417.765733        1.381520  # C_3 F_

Angle Coeffs

    1              cosine/periodic      111.297508              -1               3 # C_R C_R C_R
    2              cosine/periodic      101.852144              -1               3 # C_R C_R C_2
    3              cosine/periodic       57.289016              -1               3 # C_R C_R H_
    4              cosine/periodic       99.137149              -1               3 # C_R C_R C_3
    5              cosine/periodic      144.391343              -1               3 # C_R C_2 O_2
    6              cosine/periodic      126.842893              -1               3 # C_R C_2 O_2
    7              cosine/periodic      199.686627              -1               3 # O_2 C_2 O_2
    8              cosine/periodic       67.976975              -1               3 # C_2 O_2 H_
    9                      fourier      228.308706        0.343737        0.374972        0.281246 # C_R C_3 F_
   10                      fourier      232.152372        0.343737        0.374972        0.281246 # F_ C_3 F_

Dihedral Coeffs

    1        3.368555              -1               2 # C_R C_R C_R C_R
    2        1.250000              -1               2 # C_R C_R C_2 O_2
    3        0.166667               1               3 # C_R C_R C_3 F_
    4        2.500000              -1               2 # C_R C_2 O_2 H_

Improper Coeffs

    1        2.000000        1.000000       -1.000000        0.000000               0 # C_R C_R C_R C_2
    2       16.666667        1.000000       -1.000000        0.000000               0 # C_R C_2 O_2 O_2

Pair Coeffs

    1        0.105000        3.430851 # C_R C_R
    2        0.044000        2.571134 # H_ H_
    3        0.105000        3.430851 # C_2 C_2
    4        0.060000        3.118146 # O_2 O_2
    5        0.105000        3.430851 # C_3 C_3
    6        0.050000        2.996983 # F_ F_

Atoms

       1        1        1     0.05940    7.87012    9.16416    7.57019
       2        1        1    -0.03534    6.71052    8.39030    7.68969
       3        1        1     0.06950    6.73695    6.97976    7.56948
       4        1        2     0.06313    5.75892    8.89589    7.87860
       5        1        1     0.07048    7.97566    6.34695    7.34180
       6        1        1    -0.04645    9.13869    7.13574    7.21777
       7        1        1    -0.04697    9.08895    8.53076    7.32929
       8        1        2     0.06260   10.10348    6.66203    7.03023
       9        1        2     0.06258   10.00590    9.10775    7.22771
      10        1        3     0.33681    7.74011   10.63765    7.70217
      11        1        4    -0.24513    6.70530   11.24172    7.90423
      12        1        4    -0.47712    8.91554   11.27586    7.57645
      13        1        2     0.29541    8.68352   12.22345    7.67910
      14        1        3     0.33735    8.17562    4.87411    7.20178
      15        1        4    -0.47712    7.08115    4.15801    7.47252
      16        1        4    -0.24512    9.21514    4.33004    6.87954
      17        1        2     0.29541    7.30799    3.22534    7.27265
      18        1        5     0.41820    5.39787    6.25260    7.70608
      19        1        6    -0.16588    5.41570    5.42133    8.81236
      20        1        6    -0.16588    4.33498    7.12373    7.87909
      21        1        6    -0.16588    5.13791    5.52283    6.55926

Bonds

       1        1        1        2
       2        1        1        7
       3        2        1       10
       4        1        2        3
       5        3        2        4
       6        1        3        5
       7        4        3       18
       8        1        5        6
       9        2        5       14
      10        1        6        7
      11        3        6        8
      12        3        7        9
      13        5       10       11
      14        6       10       12
      15        7       12       13
      16        6       14       15
      17        5       14       16
      18        7       15       17
      19        8       18       19
      20        8       18       20
      21        8       18       21

Angles

       1        1        2        1        7
       2        2        2        1       10
       3        2        7        1       10
       4        1        1        2        3
       5        3        1        2        4
       6        3        3        2        4
       7        1        2        3        5
       8        4        2        3       18
       9        4        5        3       18
      10        1        3        5        6
      11        2        3        5       14
      12        2        6        5       14
      13        1        5        6        7
      14        3        5        6        8
      15        3        7        6        8
      16        1        1        7        6
      17        3        1        7        9
      18        3        6        7        9
      19        5        1       10       11
      20        6        1       10       12
      21        7       11       10       12
      22        8       10       12       13
      23        6        5       14       15
      24        5        5       14       16
      25        7       15       14       16
      26        8       14       15       17
      27        9        3       18       19
      28        9        3       18       20
      29        9        3       18       21
      30       10       19       18       20
      31       10       19       18       21
      32       10       20       18       21

Dihedrals

       1        1        7        1        2        3
       2        1        7        1        2        4
       3        1       10        1        2        3
       4        1       10        1        2        4
       5        1        2        1        7        6
       6        1        2        1        7        9
       7        1       10        1        7        6
       8        1       10        1        7        9
       9        2        2        1       10       11
      10        2        2        1       10       12
      11        2        7        1       10       11
      12        2        7        1       10       12
      13        1        1        2        3        5
      14        1        1        2        3       18
      15        1        4        2        3        5
      16        1        4        2        3       18
      17        1        2        3        5        6
      18        1        2        3        5       14
      19        1       18        3        5        6
      20        1       18        3        5       14
      21        3        2        3       18       19
      22        3        2        3       18       20
      23        3        2        3       18       21
      24        3        5        3       18       19
      25        3        5        3       18       20
      26        3        5        3       18       21
      27        1        3        5        6        7
      28        1        3        5        6        8
      29        1       14        5        6        7
      30        1       14        5        6        8
      31        2        3        5       14       15
      32        2        3        5       14       16
      33        2        6        5       14       15
      34        2        6        5       14       16
      35        1        5        6        7        1
      36        1        5        6        7        9
      37        1        8        6        7        1
      38        1        8        6        7        9
      39        4        1       10       12       13
      40        4       11       10       12       13
      41        4        5       14       15       17
      42        4       16       14       15       17

Impropers

       1        1        1        2        7       10
       2        1        1        7        2       10
       3        1        1       10        2        7
       4        1        2        1        3        4
       5        1        2        3        1        4
       6        1        2        4        1        3
       7        1        3        2        5       18
       8        1        3        5        2       18
       9        1        3       18        2        5
      10        1        5        3        6       14
      11        1        5        6        3       14
      12        1        5       14        3        6
      13        1        6        5        7        8
      14        1        6        7        5        8
      15        1        6        8        5        7
      16        1        7        1        6        9
      17        1        7        6        1        9
      18        1        7        9        1        6
      19        2       10        1       11       12
      20        2       10       11        1       12
      21        2       10       12        1       11
      22        2       14        5       15       16
      23        2       14       15        5       16
      24        2       14       16        5       15
