Created on Fri Jul 19 13:02:35 2024 

          37 atoms
          38 bonds
          56 angles
          82 dihedrals
          51 impropers

           4 atom types
           7 bond types
           8 angle types
           3 dihedral types
           2 improper types
           0.000000  15.000000 xlo xhi
           0.000000  15.000000 ylo yhi
           0.000000  15.000000 zlo zhi
           0.000000   0.000000   0.000000 xy xz yz

Masses

    1    12.010700000 # C_2
    2    12.010700000 # C_R
    3    15.999400000 # O_2
    4     1.007940000 # H_

Bond Coeffs

    1      599.390467        1.345574  # C_2 O_2
    2      389.261715        1.461000  # C_2 C_R
    3      805.258367        1.219455  # C_2 O_2
    4      462.655054        1.379256  # C_R C_R
    5      602.435128        0.966432  # O_2 H_
    6      357.440381        1.081418  # H_ C_R
    7      391.669513        1.458000  # C_R C_R

Angle Coeffs

    1      cosine/periodic	126.842893              -1               3 # O_2 C_2 C_R
    2      cosine/periodic	199.686627              -1               3 # O_2 C_2 O_2
    3      cosine/periodic	144.391343              -1               3 # C_R C_2 O_2
    4      cosine/periodic	111.297508              -1               3 # C_R C_R C_R
    5      cosine/periodic	101.852144              -1               3 # C_R C_R C_2
    6       cosine/periodic	67.976975              -1               3 # C_2 O_2 H_
    7       cosine/periodic	57.289016              -1               3 # C_R C_R H_
    8      cosine/periodic	102.183280              -1               3 # C_R C_R C_R

Dihedral Coeffs

    1        2.500000              -1               2 # C_R C_2 O_2 H_
    2        1.250000              -1               2 # O_2 C_2 C_R C_R
    3        3.368555              -1               2 # C_R C_R C_R H_

Improper Coeffs

    1       16.666667        1.000000       -1.000000        0.000000               0 # O_2 C_2 C_R O_2
    2        2.000000        1.000000       -1.000000        0.000000               0 # C_R C_R C_R C_2

Pair Coeffs

    1        0.105000        3.430851 # C_2 C_2
    2        0.105000        3.430851 # C_R C_R
    3        0.060000        3.118146 # O_2 O_2
    4        0.044000        2.571134 # H_ H_

Atoms

       1      444        1     0.33822    5.96635    7.09777    9.01681
       2      444        2     0.07339    6.95321    4.98482    8.04265
       3      444        3    -0.47710    6.28899    7.00933   10.31756
       4      444        4     0.06261    7.73409    3.29659    6.91351
       5      444        2    -0.04616    7.69354    4.37919    7.01447
       6      444        1     0.33742    6.00289    8.78484    5.21560
       7      444        2     0.08126    6.88736    6.38683    8.09872
       8      444        3    -0.24511    6.12221    9.04230    4.03151
       9      444        2    -0.04636    8.38733    5.13474    6.08205
      10      444        2     0.01241    7.60679    7.18429    7.15567
      11      444        4     0.06260    8.94484    4.63590    5.29072
      12      444        2     0.06734    6.83064    9.41862    6.26609
      13      444        2     0.06738    8.37154    6.52185    6.16887
      14      444        4     0.06258    6.35799   11.38160    5.50045
      15      444        2     0.01163    7.57304    8.66540    7.20063
      16      444        2    -0.04714    6.87873   10.81371    6.27190
      17      444        3    -0.24511    9.04560    7.04858    3.96336
      18      444        1     0.33742    9.18804    7.22748    5.15759
      19      444        2     0.06734    8.31461    9.37832    8.17121
      20      444        2    -0.06017    7.59420   11.48648    7.26634
      21      444        3    -0.47711    8.95431    8.89876   10.36338
      22      444        4     0.06180    7.62998   12.57003    7.25745
      23      444        1     0.33742    9.21862    8.64762    9.07644
      24      444        2    -0.04714    8.32088   10.77015    8.21817
      25      444        3    -0.47711   10.15587    7.98286    5.71295
      26      444        3    -0.24511   10.04957    7.84355    8.69079
      27      444        4     0.06258    8.89129   11.30572    8.96934
      28      444        3    -0.47711    5.09690    7.91915    5.71801
      29      444        3    -0.24509    5.12302    7.85810    8.56007
      30      444        4     0.29541    4.94374    7.99808    6.68995
      31      444        4     0.29541    6.78314    6.20793   10.57917
      32      444        4     0.29541   10.27470    7.87672    6.68076
      33      444        4     0.29541    9.56228    8.34938   10.90021
      34      444        1     0.33762    6.17742    4.06455    8.94036
      35      444        3    -0.24511    5.35549    4.49036    9.73738
      36      444        3    -0.47711    6.35512    2.72771    8.84875
      37      444        4     0.29541    5.86567    2.11071    9.41110

Bonds

       1        1        1        3
       2        2        1        7
       3        3        1       29
       4        4        2        5
       5        4        2        7
       6        2        2       34
       7        5        3       31
       8        6        4        5
       9        4        5        9
      10        3        6        8
      11        2        6       12
      12        1        6       28
      13        4        7       10
      14        6        9       11
      15        4        9       13
      16        4       10       13
      17        7       10       15
      18        4       12       15
      19        4       12       16
      20        2       13       18
      21        6       14       16
      22        4       15       19
      23        4       16       20
      24        3       17       18
      25        1       18       25
      26        2       19       23
      27        4       19       24
      28        6       20       22
      29        4       20       24
      30        1       21       23
      31        5       21       33
      32        3       23       26
      33        6       24       27
      34        5       25       32
      35        5       28       30
      36        3       34       35
      37        1       34       36
      38        5       36       37

Angles

       1        1        3        1        7
       2        2        3        1       29
       3        3        7        1       29
       4        4        5        2        7
       5        5        5        2       34
       6        5        7        2       34
       7        6        1        3       31
       8        7        2        5        4
       9        4        2        5        9
      10        7        4        5        9
      11        3        8        6       12
      12        2        8        6       28
      13        1       12        6       28
      14        5        1        7        2
      15        5        1        7       10
      16        4        2        7       10
      17        7        5        9       11
      18        4        5        9       13
      19        7       11        9       13
      20        4        7       10       13
      21        8        7       10       15
      22        8       13       10       15
      23        5        6       12       15
      24        5        6       12       16
      25        4       15       12       16
      26        4        9       13       10
      27        5        9       13       18
      28        5       10       13       18
      29        8       10       15       12
      30        8       10       15       19
      31        4       12       15       19
      32        7       12       16       14
      33        4       12       16       20
      34        7       14       16       20
      35        3       13       18       17
      36        1       13       18       25
      37        2       17       18       25
      38        5       15       19       23
      39        4       15       19       24
      40        5       23       19       24
      41        7       16       20       22
      42        4       16       20       24
      43        7       22       20       24
      44        6       23       21       33
      45        1       19       23       21
      46        3       19       23       26
      47        2       21       23       26
      48        4       19       24       20
      49        7       19       24       27
      50        7       20       24       27
      51        6       18       25       32
      52        6        6       28       30
      53        3        2       34       35
      54        1        2       34       36
      55        2       35       34       36
      56        6       34       36       37

Dihedrals

       1        1        7        1        3       31
       2        1       29        1        3       31
       3        2        3        1        7        2
       4        2        3        1        7       10
       5        2       29        1        7        2
       6        2       29        1        7       10
       7        3        7        2        5        4
       8        3        7        2        5        9
       9        3       34        2        5        4
      10        3       34        2        5        9
      11        3        5        2        7        1
      12        3        5        2        7       10
      13        3       34        2        7        1
      14        3       34        2        7       10
      15        2        5        2       34       35
      16        2        5        2       34       36
      17        2        7        2       34       35
      18        2        7        2       34       36
      19        3        2        5        9       11
      20        3        2        5        9       13
      21        3        4        5        9       11
      22        3        4        5        9       13
      23        2        8        6       12       15
      24        2        8        6       12       16
      25        2       28        6       12       15
      26        2       28        6       12       16
      27        1        8        6       28       30
      28        1       12        6       28       30
      29        3        1        7       10       13
      30        3        1        7       10       15
      31        3        2        7       10       13
      32        3        2        7       10       15
      33        3        5        9       13       10
      34        3        5        9       13       18
      35        3       11        9       13       10
      36        3       11        9       13       18
      37        3        7       10       13        9
      38        3        7       10       13       18
      39        3       15       10       13        9
      40        3       15       10       13       18
      41        2        7       10       15       12
      42        2        7       10       15       19
      43        2       13       10       15       12
      44        2       13       10       15       19
      45        3        6       12       15       10
      46        3        6       12       15       19
      47        3       16       12       15       10
      48        3       16       12       15       19
      49        3        6       12       16       14
      50        3        6       12       16       20
      51        3       15       12       16       14
      52        3       15       12       16       20
      53        2        9       13       18       17
      54        2        9       13       18       25
      55        2       10       13       18       17
      56        2       10       13       18       25
      57        3       10       15       19       23
      58        3       10       15       19       24
      59        3       12       15       19       23
      60        3       12       15       19       24
      61        3       12       16       20       22
      62        3       12       16       20       24
      63        3       14       16       20       22
      64        3       14       16       20       24
      65        1       13       18       25       32
      66        1       17       18       25       32
      67        2       15       19       23       21
      68        2       15       19       23       26
      69        2       24       19       23       21
      70        2       24       19       23       26
      71        3       15       19       24       20
      72        3       15       19       24       27
      73        3       23       19       24       20
      74        3       23       19       24       27
      75        3       16       20       24       19
      76        3       16       20       24       27
      77        3       22       20       24       19
      78        3       22       20       24       27
      79        1       33       21       23       19
      80        1       33       21       23       26
      81        1        2       34       36       37
      82        1       35       34       36       37

Impropers

       1        1        1        3        7       29
       2        1        1        7        3       29
       3        1        1       29        3        7
       4        2        2        5        7       34
       5        2        2        7        5       34
       6        2        2       34        5        7
       7        2        5        2        4        9
       8        2        5        4        2        9
       9        2        5        9        2        4
      10        1        6        8       12       28
      11        1        6       12        8       28
      12        1        6       28        8       12
      13        2        7        1        2       10
      14        2        7        2        1       10
      15        2        7       10        1        2
      16        2        9        5       11       13
      17        2        9       11        5       13
      18        2        9       13        5       11
      19        2       10        7       13       15
      20        2       10       13        7       15
      21        2       10       15        7       13
      22        2       12        6       15       16
      23        2       12       15        6       16
      24        2       12       16        6       15
      25        2       13        9       10       18
      26        2       13       10        9       18
      27        2       13       18        9       10
      28        2       15       10       12       19
      29        2       15       12       10       19
      30        2       15       19       10       12
      31        2       16       12       14       20
      32        2       16       14       12       20
      33        2       16       20       12       14
      34        1       18       13       17       25
      35        1       18       17       13       25
      36        1       18       25       13       17
      37        2       19       15       23       24
      38        2       19       23       15       24
      39        2       19       24       15       23
      40        2       20       16       22       24
      41        2       20       22       16       24
      42        2       20       24       16       22
      43        1       23       19       21       26
      44        1       23       21       19       26
      45        1       23       26       19       21
      46        2       24       19       20       27
      47        2       24       20       19       27
      48        2       24       27       19       20
      49        1       34        2       35       36
      50        1       34       35        2       36
      51        1       34       36        2       35
