Created on Fri Jul 19 13:01:16 2024 

          21 atoms
          21 bonds
          30 angles
          42 dihedrals
          27 impropers

           4 atom types
           6 bond types
           7 angle types
           3 dihedral types
           2 improper types
           0.000000  15.000000 xlo xhi
           0.000000  15.000000 ylo yhi
           0.000000  15.000000 zlo zhi
           0.000000   0.000000   0.000000 xy xz yz

Masses

    1    12.010700000 # C_R
    2     1.007940000 # H_
    3    12.010700000 # C_2
    4    15.999400000 # O_2

Bond Coeffs

    1      462.655054        1.379256  # C_R C_R
    2      389.261715        1.461000  # C_R C_2
    3      357.440381        1.081418  # C_R H_
    4      805.258367        1.219455  # C_2 O_2
    5      599.390467        1.345574  # C_2 O_2
    6      602.435128        0.966432  # O_2 H_

Angle Coeffs

    1      cosine/periodic	111.297508              -1               3 # C_R C_R C_R
    2      cosine/periodic	101.852144              -1               3 # C_R C_R C_2
    3       cosine/periodic	57.289016              -1               3 # C_R C_R H_
    4      cosine/periodic	144.391343              -1               3 # C_R C_2 O_2
    5      cosine/periodic	126.842893              -1               3 # C_R C_2 O_2
    6      cosine/periodic	199.686627              -1               3 # O_2 C_2 O_2
    7       cosine/periodic	67.976975              -1               3 # C_2 O_2 H_

Dihedral Coeffs

    1        3.368555              -1               2 # C_R C_R C_R C_R
    2        1.250000              -1               2 # C_R C_R C_2 O_2
    3        2.500000              -1               2 # C_R C_2 O_2 H_

Improper Coeffs

    1        2.000000        1.000000       -1.000000        0.000000               0 # C_R C_R C_R C_2
    2       16.666667        1.000000       -1.000000        0.000000               0 # C_R C_2 O_2 O_2

Pair Coeffs

    1        0.105000        3.430851 # C_R C_R
    2        0.044000        2.571134 # H_ H_
    3        0.105000        3.430851 # C_2 C_2
    4        0.060000        3.118146 # O_2 O_2

Atoms

       1        1        1     0.05965    7.92881    9.12366    7.53286
       2        1        1    -0.03299    6.77366    8.33915    7.66559
       3        1        1     0.07353    6.82377    6.92887    7.57013
       4        1        2     0.06339    5.82514    8.84074    7.87032
       5        1        1     0.07280    8.05697    6.30733    7.30794
       6        1        1    -0.04620    9.21298    7.10806    7.18508
       7        1        1    -0.04696    9.15421    8.49886    7.30425
       8        1        2     0.06261   10.18299    6.64491    7.00059
       9        1        2     0.06258   10.07196    9.07923    7.21781
      10        1        3     0.33682    7.82070   10.60051    7.66511
      11        1        4    -0.24513    6.78670   11.20658    7.87025
      12        1        4    -0.47712    8.99583   11.22480    7.53967
      13        1        2     0.29541    8.77545   12.17414    7.64695
      14        1        3     0.33760    8.29544    4.84810    7.14790
      15        1        4    -0.47711    7.19266    4.12993    6.92760
      16        1        4    -0.24511    9.39311    4.31894    7.17626
      17        1        2     0.29541    7.45513    3.19710    7.07345
      18        1        3     0.33762    5.49477    6.25704    7.83395
      19        1        4    -0.24511    5.40802    5.08794    8.16105
      20        1        4    -0.47711    4.35806    6.98936    7.80728
      21        1        2     0.29541    3.49363    6.59471    7.99595

Bonds

       1        1        1        2
       2        1        1        7
       3        2        1       10
       4        1        2        3
       5        3        2        4
       6        1        3        5
       7        2        3       18
       8        1        5        6
       9        2        5       14
      10        1        6        7
      11        3        6        8
      12        3        7        9
      13        4       10       11
      14        5       10       12
      15        6       12       13
      16        5       14       15
      17        4       14       16
      18        6       15       17
      19        4       18       19
      20        5       18       20
      21        6       20       21

Angles

       1        1        2        1        7
       2        2        2        1       10
       3        2        7        1       10
       4        1        1        2        3
       5        3        1        2        4
       6        3        3        2        4
       7        1        2        3        5
       8        2        2        3       18
       9        2        5        3       18
      10        1        3        5        6
      11        2        3        5       14
      12        2        6        5       14
      13        1        5        6        7
      14        3        5        6        8
      15        3        7        6        8
      16        1        1        7        6
      17        3        1        7        9
      18        3        6        7        9
      19        4        1       10       11
      20        5        1       10       12
      21        6       11       10       12
      22        7       10       12       13
      23        5        5       14       15
      24        4        5       14       16
      25        6       15       14       16
      26        7       14       15       17
      27        4        3       18       19
      28        5        3       18       20
      29        6       19       18       20
      30        7       18       20       21

Dihedrals

       1        1        7        1        2        3
       2        1        7        1        2        4
       3        1       10        1        2        3
       4        1       10        1        2        4
       5        1        2        1        7        6
       6        1        2        1        7        9
       7        1       10        1        7        6
       8        1       10        1        7        9
       9        2        2        1       10       11
      10        2        2        1       10       12
      11        2        7        1       10       11
      12        2        7        1       10       12
      13        1        1        2        3        5
      14        1        1        2        3       18
      15        1        4        2        3        5
      16        1        4        2        3       18
      17        1        2        3        5        6
      18        1        2        3        5       14
      19        1       18        3        5        6
      20        1       18        3        5       14
      21        2        2        3       18       19
      22        2        2        3       18       20
      23        2        5        3       18       19
      24        2        5        3       18       20
      25        1        3        5        6        7
      26        1        3        5        6        8
      27        1       14        5        6        7
      28        1       14        5        6        8
      29        2        3        5       14       15
      30        2        3        5       14       16
      31        2        6        5       14       15
      32        2        6        5       14       16
      33        1        5        6        7        1
      34        1        5        6        7        9
      35        1        8        6        7        1
      36        1        8        6        7        9
      37        3        1       10       12       13
      38        3       11       10       12       13
      39        3        5       14       15       17
      40        3       16       14       15       17
      41        3        3       18       20       21
      42        3       19       18       20       21

Impropers

       1        1        1        2        7       10
       2        1        1        7        2       10
       3        1        1       10        2        7
       4        1        2        1        3        4
       5        1        2        3        1        4
       6        1        2        4        1        3
       7        1        3        2        5       18
       8        1        3        5        2       18
       9        1        3       18        2        5
      10        1        5        3        6       14
      11        1        5        6        3       14
      12        1        5       14        3        6
      13        1        6        5        7        8
      14        1        6        7        5        8
      15        1        6        8        5        7
      16        1        7        1        6        9
      17        1        7        6        1        9
      18        1        7        9        1        6
      19        2       10        1       11       12
      20        2       10       11        1       12
      21        2       10       12        1       11
      22        2       14        5       15       16
      23        2       14       15        5       16
      24        2       14       16        5       15
      25        2       18        3       19       20
      26        2       18       19        3       20
      27        2       18       20        3       19
