Created on Fri Jul 19 13:02:17 2024 

          37 atoms
          38 bonds
          58 angles
          82 dihedrals
          48 impropers

           5 atom types
           9 bond types
          11 angle types
           4 dihedral types
           2 improper types
           0.000000  15.000000 xlo xhi
           0.000000  15.000000 ylo yhi
           0.000000  15.000000 zlo zhi
           0.000000   0.000000   0.000000 xy xz yz

Masses

    1    12.010700000 # C_2
    2    12.010700000 # C_R
    3    15.999400000 # O_2
    4     1.007940000 # H_
    5    12.010700000 # C_3

Bond Coeffs

    1      599.390467        1.345574  # C_2 O_2
    2      389.261715        1.461000  # C_2 C_R
    3      805.258367        1.219455  # C_2 O_2
    4      462.655054        1.379256  # C_R C_R
    5      369.943935        1.486000  # C_R C_3
    6      602.435128        0.966432  # O_2 H_
    7      357.440381        1.081418  # H_ C_R
    8      391.669513        1.458000  # C_R C_R
    9      331.069389        1.109401  # C_3 H_

Angle Coeffs

    1              cosine/periodic      126.842893              -1               3 # O_2 C_2 C_R
    2              cosine/periodic      199.686627              -1               3 # O_2 C_2 O_2
    3              cosine/periodic      144.391343              -1               3 # C_R C_2 O_2
    4              cosine/periodic      111.297508              -1               3 # C_R C_R C_R
    5              cosine/periodic       99.137149              -1               3 # C_R C_R C_3
    6              cosine/periodic       67.976975              -1               3 # C_2 O_2 H_
    7              cosine/periodic       57.289016              -1               3 # C_R C_R H_
    8              cosine/periodic      101.852144              -1               3 # C_2 C_R C_R
    9              cosine/periodic      102.183280              -1               3 # C_R C_R C_R
   10                      fourier      121.777217        0.343737        0.374972        0.281246 # C_R C_3 H_
   11                      fourier       75.498766        0.343737        0.374972        0.281246 # H_ C_3 H_

Dihedral Coeffs

    1        2.500000              -1               2 # C_R C_2 O_2 H_
    2        1.250000              -1               2 # O_2 C_2 C_R C_R
    3        3.368555              -1               2 # C_R C_R C_R H_
    4        0.166667               1               3 # C_R C_R C_3 H_

Improper Coeffs

    1       16.666667        1.000000       -1.000000        0.000000               0 # O_2 C_2 C_R O_2
    2        2.000000        1.000000       -1.000000        0.000000               0 # C_R C_R C_R C_3

Pair Coeffs

    1        0.105000        3.430851 # C_2 C_2
    2        0.105000        3.430851 # C_R C_R
    3        0.060000        3.118146 # O_2 O_2
    4        0.044000        2.571134 # H_ H_
    5        0.105000        3.430851 # C_3 C_3

Atoms

       1      444        1     0.33767    5.96853    7.07685    9.02324
       2      444        2    -0.03586    6.94938    4.95032    8.09668
       3      444        3    -0.47711    6.22964    6.87719   10.33145
       4      444        4     0.06206    7.68810    3.23008    7.01403
       5      444        2    -0.05725    7.67895    4.31487    7.07714
       6      444        1     0.33742    5.98768    8.71307    5.20426
       7      444        2     0.07023    6.88965    6.36325    8.10669
       8      444        3    -0.24511    6.09103    8.98146    4.02307
       9      444        2    -0.04689    8.36840    5.04637    6.12094
      10      444        2     0.01186    7.60548    7.12566    7.15141
      11      444        4     0.06259    8.91041    4.53271    5.32833
      12      444        2     0.06734    6.82041    9.35092    6.24905
      13      444        2     0.06735    8.36234    6.43646    6.17752
      14      444        4     0.06258    6.32223   11.31033    5.49068
      15      444        2     0.01161    7.57026    8.60452    7.18149
      16      444        2    -0.04714    6.85863   10.75034    6.25573
      17      444        3    -0.24511    9.03202    6.94206    3.96100
      18      444        1     0.33742    9.17659    7.12812    5.15498
      19      444        2     0.06734    8.30340    9.32080    8.15624
      20      444        2    -0.06017    7.58071   11.42820    7.23843
      21      444        3    -0.47711    8.92090    8.82220   10.35494
      22      444        4     0.06180    7.59811   12.51520    7.24000
      23      444        1     0.33742    9.20577    8.59082    9.06692
      24      444        2    -0.04714    8.29245   10.71667    8.20204
      25      444        3    -0.47711   10.14074    7.89585    5.70166
      26      444        3    -0.24511   10.05011    7.79708    8.69056
      27      444        4     0.06258    8.86456   11.25024    8.95767
      28      444        3    -0.47711    5.07246    7.85772    5.71015
      29      444        3    -0.24510    5.10909    7.82544    8.58936
      30      444        4     0.29541    4.94291    7.91401    6.68655
      31      444        4     0.29541    6.97029    6.27079   10.52744
      32      444        4     0.29541   10.25940    7.79507    6.66843
      33      444        4     0.29541    9.54944    8.28949   10.88636
      34      444        5    -0.03891    6.18220    4.05642    9.04244
      35      444        4     0.02777    5.49914    3.40469    8.45743
      36      444        4     0.02777    5.55479    4.59961    9.77198
      37      444        4     0.02777    6.89376    3.41512    9.60367

Bonds

       1        1        1        3
       2        2        1        7
       3        3        1       29
       4        4        2        5
       5        4        2        7
       6        5        2       34
       7        6        3       31
       8        7        4        5
       9        4        5        9
      10        3        6        8
      11        2        6       12
      12        1        6       28
      13        4        7       10
      14        7        9       11
      15        4        9       13
      16        4       10       13
      17        8       10       15
      18        4       12       15
      19        4       12       16
      20        2       13       18
      21        7       14       16
      22        4       15       19
      23        4       16       20
      24        3       17       18
      25        1       18       25
      26        2       19       23
      27        4       19       24
      28        7       20       22
      29        4       20       24
      30        1       21       23
      31        6       21       33
      32        3       23       26
      33        7       24       27
      34        6       25       32
      35        6       28       30
      36        9       34       35
      37        9       34       36
      38        9       34       37

Angles

       1        1        3        1        7
       2        2        3        1       29
       3        3        7        1       29
       4        4        5        2        7
       5        5        5        2       34
       6        5        7        2       34
       7        6        1        3       31
       8        7        2        5        4
       9        4        2        5        9
      10        7        4        5        9
      11        3        8        6       12
      12        2        8        6       28
      13        1       12        6       28
      14        8        1        7        2
      15        8        1        7       10
      16        4        2        7       10
      17        7        5        9       11
      18        4        5        9       13
      19        7       11        9       13
      20        4        7       10       13
      21        9        7       10       15
      22        9       13       10       15
      23        8        6       12       15
      24        8        6       12       16
      25        4       15       12       16
      26        4        9       13       10
      27        8        9       13       18
      28        8       10       13       18
      29        9       10       15       12
      30        9       10       15       19
      31        4       12       15       19
      32        7       12       16       14
      33        4       12       16       20
      34        7       14       16       20
      35        3       13       18       17
      36        1       13       18       25
      37        2       17       18       25
      38        8       15       19       23
      39        4       15       19       24
      40        8       23       19       24
      41        7       16       20       22
      42        4       16       20       24
      43        7       22       20       24
      44        6       23       21       33
      45        1       19       23       21
      46        3       19       23       26
      47        2       21       23       26
      48        4       19       24       20
      49        7       19       24       27
      50        7       20       24       27
      51        6       18       25       32
      52        6        6       28       30
      53       10        2       34       35
      54       10        2       34       36
      55       10        2       34       37
      56       11       35       34       36
      57       11       35       34       37
      58       11       36       34       37

Dihedrals

       1        1        7        1        3       31
       2        1       29        1        3       31
       3        2        3        1        7        2
       4        2        3        1        7       10
       5        2       29        1        7        2
       6        2       29        1        7       10
       7        3        7        2        5        4
       8        3        7        2        5        9
       9        3       34        2        5        4
      10        3       34        2        5        9
      11        3        5        2        7        1
      12        3        5        2        7       10
      13        3       34        2        7        1
      14        3       34        2        7       10
      15        4        5        2       34       35
      16        4        5        2       34       36
      17        4        5        2       34       37
      18        4        7        2       34       35
      19        4        7        2       34       36
      20        4        7        2       34       37
      21        3        2        5        9       11
      22        3        2        5        9       13
      23        3        4        5        9       11
      24        3        4        5        9       13
      25        2        8        6       12       15
      26        2        8        6       12       16
      27        2       28        6       12       15
      28        2       28        6       12       16
      29        1        8        6       28       30
      30        1       12        6       28       30
      31        3        1        7       10       13
      32        3        1        7       10       15
      33        3        2        7       10       13
      34        3        2        7       10       15
      35        3        5        9       13       10
      36        3        5        9       13       18
      37        3       11        9       13       10
      38        3       11        9       13       18
      39        3        7       10       13        9
      40        3        7       10       13       18
      41        3       15       10       13        9
      42        3       15       10       13       18
      43        2        7       10       15       12
      44        2        7       10       15       19
      45        2       13       10       15       12
      46        2       13       10       15       19
      47        3        6       12       15       10
      48        3        6       12       15       19
      49        3       16       12       15       10
      50        3       16       12       15       19
      51        3        6       12       16       14
      52        3        6       12       16       20
      53        3       15       12       16       14
      54        3       15       12       16       20
      55        2        9       13       18       17
      56        2        9       13       18       25
      57        2       10       13       18       17
      58        2       10       13       18       25
      59        3       10       15       19       23
      60        3       10       15       19       24
      61        3       12       15       19       23
      62        3       12       15       19       24
      63        3       12       16       20       22
      64        3       12       16       20       24
      65        3       14       16       20       22
      66        3       14       16       20       24
      67        1       13       18       25       32
      68        1       17       18       25       32
      69        2       15       19       23       21
      70        2       15       19       23       26
      71        2       24       19       23       21
      72        2       24       19       23       26
      73        3       15       19       24       20
      74        3       15       19       24       27
      75        3       23       19       24       20
      76        3       23       19       24       27
      77        3       16       20       24       19
      78        3       16       20       24       27
      79        3       22       20       24       19
      80        3       22       20       24       27
      81        1       33       21       23       19
      82        1       33       21       23       26

Impropers

       1        1        1        3        7       29
       2        1        1        7        3       29
       3        1        1       29        3        7
       4        2        2        5        7       34
       5        2        2        7        5       34
       6        2        2       34        5        7
       7        2        5        2        4        9
       8        2        5        4        2        9
       9        2        5        9        2        4
      10        1        6        8       12       28
      11        1        6       12        8       28
      12        1        6       28        8       12
      13        2        7        1        2       10
      14        2        7        2        1       10
      15        2        7       10        1        2
      16        2        9        5       11       13
      17        2        9       11        5       13
      18        2        9       13        5       11
      19        2       10        7       13       15
      20        2       10       13        7       15
      21        2       10       15        7       13
      22        2       12        6       15       16
      23        2       12       15        6       16
      24        2       12       16        6       15
      25        2       13        9       10       18
      26        2       13       10        9       18
      27        2       13       18        9       10
      28        2       15       10       12       19
      29        2       15       12       10       19
      30        2       15       19       10       12
      31        2       16       12       14       20
      32        2       16       14       12       20
      33        2       16       20       12       14
      34        1       18       13       17       25
      35        1       18       17       13       25
      36        1       18       25       13       17
      37        2       19       15       23       24
      38        2       19       23       15       24
      39        2       19       24       15       23
      40        2       20       16       22       24
      41        2       20       22       16       24
      42        2       20       24       16       22
      43        1       23       19       21       26
      44        1       23       21       19       26
      45        1       23       26       19       21
      46        2       24       19       20       27
      47        2       24       20       19       27
      48        2       24       27       19       20
