Created on Fri Jul 19 13:02:50 2024 

          34 atoms
          35 bonds
          52 angles
          76 dihedrals
          48 impropers

           5 atom types
           8 bond types
           9 angle types
           3 dihedral types
           2 improper types
           0.000000  15.000000 xlo xhi
           0.000000  15.000000 ylo yhi
           0.000000  15.000000 zlo zhi
           0.000000   0.000000   0.000000 xy xz yz

Masses

    1     1.007940000 # H_
    2    12.010700000 # C_R
    3    12.010700000 # C_2
    4    15.999400000 # O_2
    5    79.904000000 # Br

Bond Coeffs

    1      357.440381        1.081418  # H_ C_R
    2      462.655054        1.379256  # C_R C_R
    3      391.669513        1.458000  # C_R C_R
    4      389.261715        1.461000  # C_R C_2
    5      231.033365        1.905838  # C_R Br
    6      599.390467        1.345574  # C_2 O_2
    7      805.258367        1.219455  # C_2 O_2
    8      602.435128        0.966432  # O_2 H_

Angle Coeffs

    1       cosine/periodic	57.289016              -1               3 # H_ C_R C_R
    2      cosine/periodic	111.297508              -1               3 # C_R C_R C_R
    3      cosine/periodic	102.183280              -1               3 # C_R C_R C_R
    4      cosine/periodic	101.852144              -1               3 # C_R C_R C_2
    5       cosine/periodic	83.967031              -1               3 # C_R C_R Br
    6      cosine/periodic	126.842893              -1               3 # C_R C_2 O_2
    7      cosine/periodic	144.391343              -1               3 # C_R C_2 O_2
    8      cosine/periodic	199.686627              -1               3 # O_2 C_2 O_2
    9       cosine/periodic	67.976975              -1               3 # C_2 O_2 H_

Dihedral Coeffs

    1        3.368555              -1               2 # H_ C_R C_R C_R
    2        1.250000              -1               2 # C_R C_R C_R C_R
    3        2.500000              -1               2 # C_R C_2 O_2 H_

Improper Coeffs

    1        2.000000        1.000000       -1.000000        0.000000               0 # H_ C_R C_R C_R
    2       16.666667        1.000000       -1.000000        0.000000               0 # C_R C_2 O_2 O_2

Pair Coeffs

    1        0.044000        2.571134 # H_ H_
    2        0.105000        3.430851 # C_R C_R
    3        0.105000        3.430851 # C_2 C_2
    4        0.060000        3.118146 # O_2 O_2
    5        0.251000        3.731975 # Br Br

Atoms

       1      444        1     0.06341    7.50377    7.49722    2.73664
       2      444        2    -0.03268    7.50552    7.51420    3.82727
       3      444        2    -0.00231    7.48717    7.52286    6.66892
       4      444        2     0.07410    6.90049    8.58169    4.51817
       5      444        2    -0.01524    7.48044    7.42943    8.15867
       6      444        2     0.03956    6.94963    8.62269    5.93245
       7      444        2     0.06018    6.45575    8.01944   10.30908
       8      444        2    -0.03376    7.52594    7.46422   10.99968
       9      444        1     0.06337    7.55983    7.50310   12.08447
      10      444        2    -0.03895    8.07146    6.46762    5.92796
      11      444        2     0.06025    8.12574    6.47780    4.52974
      12      444        2     0.06018    8.55366    6.85147   10.27734
      13      444        1     0.06320    8.51922    5.62236    6.45086
      14      444        2    -0.03997    8.55426    6.88430    8.87472
      15      444        3     0.33684    8.86344    5.42735    3.78279
      16      444        4    -0.47712    9.02772    4.30876    4.51282
      17      444        4    -0.47712    9.28325    5.69250   12.16702
      18      444        4    -0.24513    9.31060    5.53281    2.65689
      19      444        1     0.06317    9.42285    6.47575    8.35088
      20      444        3     0.33684    9.64778    6.12976   10.96279
      21      444        4    -0.24513   10.72893    5.84392   10.47731
      22      444        4    -0.24513    4.30329    9.07656   10.48492
      23      444        3     0.33684    5.38411    8.79840   10.96933
      24      444        1     0.06317    5.48810    8.24505    8.42527
      25      444        4    -0.24509    5.59319    9.28486    2.63340
      26      444        4    -0.47712    5.76987    9.28839   12.15932
      27      444        4    -0.47710    6.15197   10.80906    4.15709
      28      444        3     0.33792    6.16285    9.56133    3.67370
      29      444        2    -0.03997    6.39474    7.89662    8.91802
      30      444        1     0.29541    5.01714    9.85456   12.43438
      31      444        1     0.29541   10.03609    5.14447   12.46463
      32      444        1     0.29541    5.46062   11.30311    3.67323
      33      444        1     0.29541    9.53992    3.70090    3.93739
      34      444        5    -0.04883    6.22067   10.16743    6.86289

Bonds

       1        1        1        2
       2        2        2        4
       3        2        2       11
       4        3        3        5
       5        2        3        6
       6        2        3       10
       7        2        4        6
       8        4        4       28
       9        2        5       14
      10        2        5       29
      11        5        6       34
      12        2        7        8
      13        4        7       23
      14        2        7       29
      15        1        8        9
      16        2        8       12
      17        2       10       11
      18        1       10       13
      19        4       11       15
      20        2       12       14
      21        4       12       20
      22        1       14       19
      23        6       15       16
      24        7       15       18
      25        8       16       33
      26        6       17       20
      27        8       17       31
      28        7       20       21
      29        7       22       23
      30        6       23       26
      31        1       24       29
      32        7       25       28
      33        8       26       30
      34        6       27       28
      35        8       27       32

Angles

       1        1        1        2        4
       2        1        1        2       11
       3        2        4        2       11
       4        3        5        3        6
       5        3        5        3       10
       6        2        6        3       10
       7        2        2        4        6
       8        4        2        4       28
       9        4        6        4       28
      10        3        3        5       14
      11        3        3        5       29
      12        2       14        5       29
      13        2        3        6        4
      14        5        3        6       34
      15        5        4        6       34
      16        4        8        7       23
      17        2        8        7       29
      18        4       23        7       29
      19        1        7        8        9
      20        2        7        8       12
      21        1        9        8       12
      22        2        3       10       11
      23        1        3       10       13
      24        1       11       10       13
      25        2        2       11       10
      26        4        2       11       15
      27        4       10       11       15
      28        2        8       12       14
      29        4        8       12       20
      30        4       14       12       20
      31        2        5       14       12
      32        1        5       14       19
      33        1       12       14       19
      34        6       11       15       16
      35        7       11       15       18
      36        8       16       15       18
      37        9       15       16       33
      38        9       20       17       31
      39        6       12       20       17
      40        7       12       20       21
      41        8       17       20       21
      42        7        7       23       22
      43        6        7       23       26
      44        8       22       23       26
      45        9       23       26       30
      46        9       28       27       32
      47        7        4       28       25
      48        6        4       28       27
      49        8       25       28       27
      50        2        5       29        7
      51        1        5       29       24
      52        1        7       29       24

Dihedrals

       1        1        1        2        4        6
       2        1        1        2        4       28
       3        1       11        2        4        6
       4        1       11        2        4       28
       5        1        1        2       11       10
       6        1        1        2       11       15
       7        1        4        2       11       10
       8        1        4        2       11       15
       9        2        6        3        5       14
      10        2        6        3        5       29
      11        2       10        3        5       14
      12        2       10        3        5       29
      13        1        5        3        6        4
      14        1        5        3        6       34
      15        1       10        3        6        4
      16        1       10        3        6       34
      17        1        5        3       10       11
      18        1        5        3       10       13
      19        1        6        3       10       11
      20        1        6        3       10       13
      21        1        2        4        6        3
      22        1        2        4        6       34
      23        1       28        4        6        3
      24        1       28        4        6       34
      25        2        2        4       28       25
      26        2        2        4       28       27
      27        2        6        4       28       25
      28        2        6        4       28       27
      29        1        3        5       14       12
      30        1        3        5       14       19
      31        1       29        5       14       12
      32        1       29        5       14       19
      33        1        3        5       29        7
      34        1        3        5       29       24
      35        1       14        5       29        7
      36        1       14        5       29       24
      37        1       23        7        8        9
      38        1       23        7        8       12
      39        1       29        7        8        9
      40        1       29        7        8       12
      41        2        8        7       23       22
      42        2        8        7       23       26
      43        2       29        7       23       22
      44        2       29        7       23       26
      45        1        8        7       29        5
      46        1        8        7       29       24
      47        1       23        7       29        5
      48        1       23        7       29       24
      49        1        7        8       12       14
      50        1        7        8       12       20
      51        1        9        8       12       14
      52        1        9        8       12       20
      53        1        3       10       11        2
      54        1        3       10       11       15
      55        1       13       10       11        2
      56        1       13       10       11       15
      57        2        2       11       15       16
      58        2        2       11       15       18
      59        2       10       11       15       16
      60        2       10       11       15       18
      61        1        8       12       14        5
      62        1        8       12       14       19
      63        1       20       12       14        5
      64        1       20       12       14       19
      65        2        8       12       20       17
      66        2        8       12       20       21
      67        2       14       12       20       17
      68        2       14       12       20       21
      69        3       11       15       16       33
      70        3       18       15       16       33
      71        3       31       17       20       12
      72        3       31       17       20       21
      73        3        7       23       26       30
      74        3       22       23       26       30
      75        3       32       27       28        4
      76        3       32       27       28       25

Impropers

       1        1        2        1        4       11
       2        1        2        4        1       11
       3        1        2       11        1        4
       4        1        3        5        6       10
       5        1        3        6        5       10
       6        1        3       10        5        6
       7        1        4        2        6       28
       8        1        4        6        2       28
       9        1        4       28        2        6
      10        1        5        3       14       29
      11        1        5       14        3       29
      12        1        5       29        3       14
      13        1        6        3        4       34
      14        1        6        4        3       34
      15        1        6       34        3        4
      16        1        7        8       23       29
      17        1        7       23        8       29
      18        1        7       29        8       23
      19        1        8        7        9       12
      20        1        8        9        7       12
      21        1        8       12        7        9
      22        1       10        3       11       13
      23        1       10       11        3       13
      24        1       10       13        3       11
      25        1       11        2       10       15
      26        1       11       10        2       15
      27        1       11       15        2       10
      28        1       12        8       14       20
      29        1       12       14        8       20
      30        1       12       20        8       14
      31        1       14        5       12       19
      32        1       14       12        5       19
      33        1       14       19        5       12
      34        2       15       11       16       18
      35        2       15       16       11       18
      36        2       15       18       11       16
      37        2       20       12       17       21
      38        2       20       17       12       21
      39        2       20       21       12       17
      40        2       23        7       22       26
      41        2       23       22        7       26
      42        2       23       26        7       22
      43        2       28        4       25       27
      44        2       28       25        4       27
      45        2       28       27        4       25
      46        1       29        5        7       24
      47        1       29        7        5       24
      48        1       29       24        5        7
