Created on Fri Jul 19 13:02:56 2024 

          37 atoms
          38 bonds
          58 angles
          82 dihedrals
          48 impropers

           6 atom types
           9 bond types
          11 angle types
           4 dihedral types
           2 improper types
           0.000000  15.000000 xlo xhi
           0.000000  15.000000 ylo yhi
           0.000000  15.000000 zlo zhi
           0.000000   0.000000   0.000000 xy xz yz

Masses

    1     1.007940000 # H_
    2    12.010700000 # C_R
    3    12.010700000 # C_2
    4    15.999400000 # O_2
    5    12.010700000 # C_3
    6    18.998403200 # F_

Bond Coeffs

    1      357.440381        1.081418  # H_ C_R
    2      462.655054        1.379256  # C_R C_R
    3      391.669513        1.458000  # C_R C_R
    4      389.261715        1.461000  # C_R C_2
    5      369.943935        1.486000  # C_R C_3
    6      599.390467        1.345574  # C_2 O_2
    7      805.258367        1.219455  # C_2 O_2
    8      602.435128        0.966432  # O_2 H_
    9      417.765733        1.381520  # C_3 F_

Angle Coeffs

    1              cosine/periodic       57.289016              -1               3 # H_ C_R C_R
    2              cosine/periodic      111.297508              -1               3 # C_R C_R C_R
    3              cosine/periodic      102.183280              -1               3 # C_R C_R C_R
    4              cosine/periodic      101.852144              -1               3 # C_R C_R C_2
    5              cosine/periodic       99.137149              -1               3 # C_R C_R C_3
    6              cosine/periodic      126.842893              -1               3 # C_R C_2 O_2
    7              cosine/periodic      144.391343              -1               3 # C_R C_2 O_2
    8              cosine/periodic      199.686627              -1               3 # O_2 C_2 O_2
    9              cosine/periodic       67.976975              -1               3 # C_2 O_2 H_
   10                      fourier      228.308706        0.343737        0.374972        0.281246 # C_R C_3 F_
   11                      fourier      232.152372        0.343737        0.374972        0.281246 # F_ C_3 F_

Dihedral Coeffs

    1        3.368555              -1               2 # H_ C_R C_R C_R
    2        1.250000              -1               2 # C_R C_R C_R C_R
    3        0.166667               1               3 # C_R C_R C_3 F_
    4        2.500000              -1               2 # C_R C_2 O_2 H_

Improper Coeffs

    1        2.000000        1.000000       -1.000000        0.000000               0 # H_ C_R C_R C_R
    2       16.666667        1.000000       -1.000000        0.000000               0 # C_R C_2 O_2 O_2

Pair Coeffs

    1        0.044000        2.571134 # H_ H_
    2        0.105000        3.430851 # C_R C_R
    3        0.105000        3.430851 # C_2 C_2
    4        0.060000        3.118146 # O_2 O_2
    5        0.105000        3.430851 # C_3 C_3
    6        0.050000        2.996983 # F_ F_

Atoms

       1      444        1     0.06338    7.71404    7.26330    2.77759
       2      444        2    -0.03321    7.68768    7.29518    3.86729
       3      444        2    -0.00464    7.54866    7.33738    6.71217
       4      444        2     0.07180    7.05009    8.35269    4.52818
       5      444        2    -0.01576    7.58859    7.26593    8.21152
       6      444        2     0.07645    6.95623    8.41160    5.95347
       7      444        2     0.06018    6.59252    7.84626   10.39463
       8      444        2    -0.03376    7.67497    7.31829   11.07354
       9      444        1     0.06337    7.70870    7.34566   12.15824
      10      444        2    -0.03947    8.17989    6.28113    5.99218
      11      444        2     0.06020    8.25973    6.26324    4.59855
      12      444        2     0.06018    8.68568    6.69921   10.33579
      13      444        1     0.06318    8.62138    5.44061    6.53556
      14      444        2    -0.03999    8.67653    6.73018    8.92443
      15      444        3     0.33684    8.98506    5.19326    3.87470
      16      444        4    -0.47712    9.10143    4.06513    4.59651
      17      444        4    -0.47712    9.38145    5.48261   12.20830
      18      444        4    -0.24513    9.44001    5.28394    2.75086
      19      444        1     0.06317    9.52590    6.28555    8.40520
      20      444        3     0.33684    9.77005    5.95987   11.01413
      21      444        4    -0.24513   10.85048    5.68425   10.53063
      22      444        4    -0.24513    4.41399    8.85202   10.56703
      23      444        3     0.33684    5.49990    8.59807   11.05238
      24      444        1     0.06317    5.55391    7.88920    8.56663
      25      444        4    -0.24512    5.52857    8.98029    2.81593
      26      444        4    -0.47712    5.87755    9.10424   12.23759
      27      444        4    -0.47712    6.69113   10.58705    3.86672
      28      444        3     0.33739    6.37526    9.30855    3.62302
      29      444        2    -0.03999    6.51864    7.69024    9.00596
      30      444        1     0.29541    5.11598    9.66259   12.50443
      31      444        1     0.29541   10.13218    4.92744   12.50800
      32      444        1     0.29541    5.84711   11.07211    3.69882
      33      444        1     0.29541    9.60452    3.45920    4.01072
      34      444        5     0.41874    6.25834    9.59073    6.70276
      35      444        6    -0.16586    6.96325    9.93424    7.84083
      36      444        6    -0.16586    6.16851   10.78934    6.06097
      37      444        6    -0.16586    4.95207    9.24940    6.99472

Bonds

       1        1        1        2
       2        2        2        4
       3        2        2       11
       4        3        3        5
       5        2        3        6
       6        2        3       10
       7        2        4        6
       8        4        4       28
       9        2        5       14
      10        2        5       29
      11        5        6       34
      12        2        7        8
      13        4        7       23
      14        2        7       29
      15        1        8        9
      16        2        8       12
      17        2       10       11
      18        1       10       13
      19        4       11       15
      20        2       12       14
      21        4       12       20
      22        1       14       19
      23        6       15       16
      24        7       15       18
      25        8       16       33
      26        6       17       20
      27        8       17       31
      28        7       20       21
      29        7       22       23
      30        6       23       26
      31        1       24       29
      32        7       25       28
      33        8       26       30
      34        6       27       28
      35        8       27       32
      36        9       34       35
      37        9       34       36
      38        9       34       37

Angles

       1        1        1        2        4
       2        1        1        2       11
       3        2        4        2       11
       4        3        5        3        6
       5        3        5        3       10
       6        2        6        3       10
       7        2        2        4        6
       8        4        2        4       28
       9        4        6        4       28
      10        3        3        5       14
      11        3        3        5       29
      12        2       14        5       29
      13        2        3        6        4
      14        5        3        6       34
      15        5        4        6       34
      16        4        8        7       23
      17        2        8        7       29
      18        4       23        7       29
      19        1        7        8        9
      20        2        7        8       12
      21        1        9        8       12
      22        2        3       10       11
      23        1        3       10       13
      24        1       11       10       13
      25        2        2       11       10
      26        4        2       11       15
      27        4       10       11       15
      28        2        8       12       14
      29        4        8       12       20
      30        4       14       12       20
      31        2        5       14       12
      32        1        5       14       19
      33        1       12       14       19
      34        6       11       15       16
      35        7       11       15       18
      36        8       16       15       18
      37        9       15       16       33
      38        9       20       17       31
      39        6       12       20       17
      40        7       12       20       21
      41        8       17       20       21
      42        7        7       23       22
      43        6        7       23       26
      44        8       22       23       26
      45        9       23       26       30
      46        9       28       27       32
      47        7        4       28       25
      48        6        4       28       27
      49        8       25       28       27
      50        2        5       29        7
      51        1        5       29       24
      52        1        7       29       24
      53       10        6       34       35
      54       10        6       34       36
      55       10        6       34       37
      56       11       35       34       36
      57       11       35       34       37
      58       11       36       34       37

Dihedrals

       1        1        1        2        4        6
       2        1        1        2        4       28
       3        1       11        2        4        6
       4        1       11        2        4       28
       5        1        1        2       11       10
       6        1        1        2       11       15
       7        1        4        2       11       10
       8        1        4        2       11       15
       9        2        6        3        5       14
      10        2        6        3        5       29
      11        2       10        3        5       14
      12        2       10        3        5       29
      13        1        5        3        6        4
      14        1        5        3        6       34
      15        1       10        3        6        4
      16        1       10        3        6       34
      17        1        5        3       10       11
      18        1        5        3       10       13
      19        1        6        3       10       11
      20        1        6        3       10       13
      21        1        2        4        6        3
      22        1        2        4        6       34
      23        1       28        4        6        3
      24        1       28        4        6       34
      25        2        2        4       28       25
      26        2        2        4       28       27
      27        2        6        4       28       25
      28        2        6        4       28       27
      29        1        3        5       14       12
      30        1        3        5       14       19
      31        1       29        5       14       12
      32        1       29        5       14       19
      33        1        3        5       29        7
      34        1        3        5       29       24
      35        1       14        5       29        7
      36        1       14        5       29       24
      37        3        3        6       34       35
      38        3        3        6       34       36
      39        3        3        6       34       37
      40        3        4        6       34       35
      41        3        4        6       34       36
      42        3        4        6       34       37
      43        1       23        7        8        9
      44        1       23        7        8       12
      45        1       29        7        8        9
      46        1       29        7        8       12
      47        2        8        7       23       22
      48        2        8        7       23       26
      49        2       29        7       23       22
      50        2       29        7       23       26
      51        1        8        7       29        5
      52        1        8        7       29       24
      53        1       23        7       29        5
      54        1       23        7       29       24
      55        1        7        8       12       14
      56        1        7        8       12       20
      57        1        9        8       12       14
      58        1        9        8       12       20
      59        1        3       10       11        2
      60        1        3       10       11       15
      61        1       13       10       11        2
      62        1       13       10       11       15
      63        2        2       11       15       16
      64        2        2       11       15       18
      65        2       10       11       15       16
      66        2       10       11       15       18
      67        1        8       12       14        5
      68        1        8       12       14       19
      69        1       20       12       14        5
      70        1       20       12       14       19
      71        2        8       12       20       17
      72        2        8       12       20       21
      73        2       14       12       20       17
      74        2       14       12       20       21
      75        4       11       15       16       33
      76        4       18       15       16       33
      77        4       31       17       20       12
      78        4       31       17       20       21
      79        4        7       23       26       30
      80        4       22       23       26       30
      81        4       32       27       28        4
      82        4       32       27       28       25

Impropers

       1        1        2        1        4       11
       2        1        2        4        1       11
       3        1        2       11        1        4
       4        1        3        5        6       10
       5        1        3        6        5       10
       6        1        3       10        5        6
       7        1        4        2        6       28
       8        1        4        6        2       28
       9        1        4       28        2        6
      10        1        5        3       14       29
      11        1        5       14        3       29
      12        1        5       29        3       14
      13        1        6        3        4       34
      14        1        6        4        3       34
      15        1        6       34        3        4
      16        1        7        8       23       29
      17        1        7       23        8       29
      18        1        7       29        8       23
      19        1        8        7        9       12
      20        1        8        9        7       12
      21        1        8       12        7        9
      22        1       10        3       11       13
      23        1       10       11        3       13
      24        1       10       13        3       11
      25        1       11        2       10       15
      26        1       11       10        2       15
      27        1       11       15        2       10
      28        1       12        8       14       20
      29        1       12       14        8       20
      30        1       12       20        8       14
      31        1       14        5       12       19
      32        1       14       12        5       19
      33        1       14       19        5       12
      34        2       15       11       16       18
      35        2       15       16       11       18
      36        2       15       18       11       16
      37        2       20       12       17       21
      38        2       20       17       12       21
      39        2       20       21       12       17
      40        2       23        7       22       26
      41        2       23       22        7       26
      42        2       23       26        7       22
      43        2       28        4       25       27
      44        2       28       25        4       27
      45        2       28       27        4       25
      46        1       29        5        7       24
      47        1       29        7        5       24
      48        1       29       24        5        7
