Created on Fri Jul 19 13:02:11 2024 

          34 atoms
          35 bonds
          52 angles
          76 dihedrals
          48 impropers

           5 atom types
           8 bond types
           9 angle types
           3 dihedral types
           2 improper types
           0.000000  15.000000 xlo xhi
           0.000000  15.000000 ylo yhi
           0.000000  15.000000 zlo zhi
           0.000000   0.000000   0.000000 xy xz yz

Masses

    1    12.010700000 # C_2
    2    12.010700000 # C_R
    3    15.999400000 # O_2
    4     1.007940000 # H_
    5    35.453000000 # Cl

Bond Coeffs

    1      599.390467        1.345574  # C_2 O_2
    2      389.261715        1.461000  # C_2 C_R
    3      805.258367        1.219455  # C_2 O_2
    4      462.655054        1.379256  # C_R C_R
    5      277.880341        1.750578  # C_R Cl
    6      602.435128        0.966432  # O_2 H_
    7      357.440381        1.081418  # H_ C_R
    8      391.669513        1.458000  # C_R C_R

Angle Coeffs

    1      cosine/periodic	126.842893              -1               3 # O_2 C_2 C_R
    2      cosine/periodic	199.686627              -1               3 # O_2 C_2 O_2
    3      cosine/periodic	144.391343              -1               3 # C_R C_2 O_2
    4      cosine/periodic	111.297508              -1               3 # C_R C_R C_R
    5       cosine/periodic	91.878144              -1               3 # C_R C_R Cl
    6       cosine/periodic	67.976975              -1               3 # C_2 O_2 H_
    7       cosine/periodic	57.289016              -1               3 # C_R C_R H_
    8      cosine/periodic	101.852144              -1               3 # C_2 C_R C_R
    9      cosine/periodic	102.183280              -1               3 # C_R C_R C_R

Dihedral Coeffs

    1        2.500000              -1               2 # C_R C_2 O_2 H_
    2        1.250000              -1               2 # O_2 C_2 C_R C_R
    3        3.368555              -1               2 # C_R C_R C_R H_

Improper Coeffs

    1       16.666667        1.000000       -1.000000        0.000000               0 # O_2 C_2 C_R O_2
    2        2.000000        1.000000       -1.000000        0.000000               0 # C_R C_R C_R Cl

Pair Coeffs

    1        0.105000        3.430851 # C_2 C_2
    2        0.105000        3.430851 # C_R C_R
    3        0.060000        3.118146 # O_2 O_2
    4        0.044000        2.571134 # H_ H_
    5        0.227000        3.516377 # Cl Cl

Atoms

       1      444        1     0.33884    5.84353    6.74133    9.17648
       2      444        2     0.05556    6.79321    4.63420    8.23715
       3      444        3    -0.47708    6.10404    6.54361   10.47957
       4      444        4     0.06325    7.54072    2.88933    7.20525
       5      444        2    -0.04178    7.52738    3.97656    7.25107
       6      444        1     0.33742    5.86436    8.40375    5.35307
       7      444        2     0.08557    6.75076    6.03428    8.25426
       8      444        3    -0.24511    5.97489    8.66284    4.17016
       9      444        2    -0.04576    8.23336    4.70758    6.29541
      10      444        2     0.01303    7.47467    6.80218    7.30314
      11      444        4     0.06263    8.78244    4.18854    5.51128
      12      444        2     0.06734    6.70023    9.03892    6.39852
      13      444        2     0.06742    8.23282    6.10512    6.33958
      14      444        4     0.06258    6.21426   11.00156    5.63741
      15      444        2     0.01165    7.44918    8.28688    7.32683
      16      444        2    -0.04714    6.74689   10.43887    6.40238
      17      444        3    -0.24511    8.87548    6.62631    4.12103
      18      444        1     0.33742    9.03922    6.80099    5.31280
      19      444        2     0.06734    8.18484    9.00449    8.30048
      20      444        2    -0.06017    7.47077   11.11428    7.38421
      21      444        3    -0.47711    8.81270    8.51799   10.49566
      22      444        4     0.06180    7.49134   12.20243    7.38984
      23      444        1     0.33742    9.08837    8.27501    9.20762
      24      444        2    -0.04714    8.17946   10.40115    8.34529
      25      444        3    -0.47711   10.00719    7.57342    5.84715
      26      444        3    -0.24511    9.91667    7.46276    8.82547
      27      444        4     0.06258    8.75758   10.92975    9.10023
      28      444        3    -0.47711    4.95658    7.54666    5.86241
      29      444        3    -0.24506    5.00706    7.51987    8.74010
      30      444        4     0.29541    4.80714    7.62803    6.83279
      31      444        4     0.29541    6.74628    5.83638   10.68660
      32      444        4     0.29541   10.13921    7.48419    6.81636
      33      444        4     0.29541    9.42884    7.97910   11.03470
      34      444        5    -0.08268    5.85853    3.64164    9.35567

Bonds

       1        1        1        3
       2        2        1        7
       3        3        1       29
       4        4        2        5
       5        4        2        7
       6        5        2       34
       7        6        3       31
       8        7        4        5
       9        4        5        9
      10        3        6        8
      11        2        6       12
      12        1        6       28
      13        4        7       10
      14        7        9       11
      15        4        9       13
      16        4       10       13
      17        8       10       15
      18        4       12       15
      19        4       12       16
      20        2       13       18
      21        7       14       16
      22        4       15       19
      23        4       16       20
      24        3       17       18
      25        1       18       25
      26        2       19       23
      27        4       19       24
      28        7       20       22
      29        4       20       24
      30        1       21       23
      31        6       21       33
      32        3       23       26
      33        7       24       27
      34        6       25       32
      35        6       28       30

Angles

       1        1        3        1        7
       2        2        3        1       29
       3        3        7        1       29
       4        4        5        2        7
       5        5        5        2       34
       6        5        7        2       34
       7        6        1        3       31
       8        7        2        5        4
       9        4        2        5        9
      10        7        4        5        9
      11        3        8        6       12
      12        2        8        6       28
      13        1       12        6       28
      14        8        1        7        2
      15        8        1        7       10
      16        4        2        7       10
      17        7        5        9       11
      18        4        5        9       13
      19        7       11        9       13
      20        4        7       10       13
      21        9        7       10       15
      22        9       13       10       15
      23        8        6       12       15
      24        8        6       12       16
      25        4       15       12       16
      26        4        9       13       10
      27        8        9       13       18
      28        8       10       13       18
      29        9       10       15       12
      30        9       10       15       19
      31        4       12       15       19
      32        7       12       16       14
      33        4       12       16       20
      34        7       14       16       20
      35        3       13       18       17
      36        1       13       18       25
      37        2       17       18       25
      38        8       15       19       23
      39        4       15       19       24
      40        8       23       19       24
      41        7       16       20       22
      42        4       16       20       24
      43        7       22       20       24
      44        6       23       21       33
      45        1       19       23       21
      46        3       19       23       26
      47        2       21       23       26
      48        4       19       24       20
      49        7       19       24       27
      50        7       20       24       27
      51        6       18       25       32
      52        6        6       28       30

Dihedrals

       1        1        7        1        3       31
       2        1       29        1        3       31
       3        2        3        1        7        2
       4        2        3        1        7       10
       5        2       29        1        7        2
       6        2       29        1        7       10
       7        3        7        2        5        4
       8        3        7        2        5        9
       9        3       34        2        5        4
      10        3       34        2        5        9
      11        3        5        2        7        1
      12        3        5        2        7       10
      13        3       34        2        7        1
      14        3       34        2        7       10
      15        3        2        5        9       11
      16        3        2        5        9       13
      17        3        4        5        9       11
      18        3        4        5        9       13
      19        2        8        6       12       15
      20        2        8        6       12       16
      21        2       28        6       12       15
      22        2       28        6       12       16
      23        1        8        6       28       30
      24        1       12        6       28       30
      25        3        1        7       10       13
      26        3        1        7       10       15
      27        3        2        7       10       13
      28        3        2        7       10       15
      29        3        5        9       13       10
      30        3        5        9       13       18
      31        3       11        9       13       10
      32        3       11        9       13       18
      33        3        7       10       13        9
      34        3        7       10       13       18
      35        3       15       10       13        9
      36        3       15       10       13       18
      37        2        7       10       15       12
      38        2        7       10       15       19
      39        2       13       10       15       12
      40        2       13       10       15       19
      41        3        6       12       15       10
      42        3        6       12       15       19
      43        3       16       12       15       10
      44        3       16       12       15       19
      45        3        6       12       16       14
      46        3        6       12       16       20
      47        3       15       12       16       14
      48        3       15       12       16       20
      49        2        9       13       18       17
      50        2        9       13       18       25
      51        2       10       13       18       17
      52        2       10       13       18       25
      53        3       10       15       19       23
      54        3       10       15       19       24
      55        3       12       15       19       23
      56        3       12       15       19       24
      57        3       12       16       20       22
      58        3       12       16       20       24
      59        3       14       16       20       22
      60        3       14       16       20       24
      61        1       13       18       25       32
      62        1       17       18       25       32
      63        2       15       19       23       21
      64        2       15       19       23       26
      65        2       24       19       23       21
      66        2       24       19       23       26
      67        3       15       19       24       20
      68        3       15       19       24       27
      69        3       23       19       24       20
      70        3       23       19       24       27
      71        3       16       20       24       19
      72        3       16       20       24       27
      73        3       22       20       24       19
      74        3       22       20       24       27
      75        1       33       21       23       19
      76        1       33       21       23       26

Impropers

       1        1        1        3        7       29
       2        1        1        7        3       29
       3        1        1       29        3        7
       4        2        2        5        7       34
       5        2        2        7        5       34
       6        2        2       34        5        7
       7        2        5        2        4        9
       8        2        5        4        2        9
       9        2        5        9        2        4
      10        1        6        8       12       28
      11        1        6       12        8       28
      12        1        6       28        8       12
      13        2        7        1        2       10
      14        2        7        2        1       10
      15        2        7       10        1        2
      16        2        9        5       11       13
      17        2        9       11        5       13
      18        2        9       13        5       11
      19        2       10        7       13       15
      20        2       10       13        7       15
      21        2       10       15        7       13
      22        2       12        6       15       16
      23        2       12       15        6       16
      24        2       12       16        6       15
      25        2       13        9       10       18
      26        2       13       10        9       18
      27        2       13       18        9       10
      28        2       15       10       12       19
      29        2       15       12       10       19
      30        2       15       19       10       12
      31        2       16       12       14       20
      32        2       16       14       12       20
      33        2       16       20       12       14
      34        1       18       13       17       25
      35        1       18       17       13       25
      36        1       18       25       13       17
      37        2       19       15       23       24
      38        2       19       23       15       24
      39        2       19       24       15       23
      40        2       20       16       22       24
      41        2       20       22       16       24
      42        2       20       24       16       22
      43        1       23       19       21       26
      44        1       23       21       19       26
      45        1       23       26       19       21
      46        2       24       19       20       27
      47        2       24       20       19       27
      48        2       24       27       19       20
